

     ************************************************************************
     *************** Dalton - An Electronic Structure Program ***************
     ************************************************************************

    This is output from DALTON release Dalton2017.alpha (2016)
         ( Web site: http://daltonprogram.org )

   ----------------------------------------------------------------------------

    NOTE:
     
    Dalton is an experimental code for the evaluation of molecular
    properties using (MC)SCF, DFT, CI, and CC wave functions.
    The authors accept no responsibility for the performance of
    the code or for the correctness of the results.
     
    The code (in whole or part) is provided under a licence and
    is not to be reproduced for further distribution without
    the written permission of the authors or their representatives.
     
    See the home page "http://daltonprogram.org" for further information.
     
    If results obtained with this code are published,
    the appropriate citations would be both of:
     
       K. Aidas, C. Angeli, K. L. Bak, V. Bakken, R. Bast,
       L. Boman, O. Christiansen, R. Cimiraglia, S. Coriani,
       P. Dahle, E. K. Dalskov, U. Ekstroem,
       T. Enevoldsen, J. J. Eriksen, P. Ettenhuber, B. Fernandez,
       L. Ferrighi, H. Fliegl, L. Frediani, K. Hald, A. Halkier,
       C. Haettig, H. Heiberg, T. Helgaker, A. C. Hennum,
       H. Hettema, E. Hjertenaes, S. Hoest, I.-M. Hoeyvik,
       M. F. Iozzi, B. Jansik, H. J. Aa. Jensen, D. Jonsson,
       P. Joergensen, J. Kauczor, S. Kirpekar,
       T. Kjaergaard, W. Klopper, S. Knecht, R. Kobayashi, H. Koch,
       J. Kongsted, A. Krapp, K. Kristensen, A. Ligabue,
       O. B. Lutnaes, J. I. Melo, K. V. Mikkelsen, R. H. Myhre,
       C. Neiss, C. B. Nielsen, P. Norman, J. Olsen,
       J. M. H. Olsen, A. Osted, M. J. Packer, F. Pawlowski,
       T. B. Pedersen, P. F. Provasi, S. Reine, Z. Rinkevicius,
       T. A. Ruden, K. Ruud, V. Rybkin, P. Salek, C. C. M. Samson,
       A. Sanchez de Meras, T. Saue, S. P. A. Sauer,
       B. Schimmelpfennig, K. Sneskov, A. H. Steindal,
       K. O. Sylvester-Hvid, P. R. Taylor, A. M. Teale,
       E. I. Tellgren, D. P. Tew, A. J. Thorvaldsen, L. Thoegersen,
       O. Vahtras, M. A. Watson, D. J. D. Wilson, M. Ziolkowski
       and H. Agren,
       "The Dalton quantum chemistry program system",
       WIREs Comput. Mol. Sci. 2014, 4:269–284 (doi: 10.1002/wcms.1172)
     
    and
     
       Dalton, a Molecular Electronic Structure Program,
       Release Dalton2017.alpha (2016), see http://daltonprogram.org
   ----------------------------------------------------------------------------

    Authors in alphabetical order (major contribution(s) in parenthesis):

  Kestutis Aidas,           Vilnius University,           Lithuania   (QM/MM)
  Celestino Angeli,         University of Ferrara,        Italy       (NEVPT2)
  Keld L. Bak,              UNI-C,                        Denmark     (AOSOPPA, non-adiabatic coupling, magnetic properties)
  Vebjoern Bakken,          University of Oslo,           Norway      (DALTON; geometry optimizer, symmetry detection)
  Radovan Bast,             UiT The Arctic U. of Norway,  Norway      (DALTON installation and execution frameworks)
  Pablo Baudin,             University of Valencia,       Spain       (Cholesky excitation energies)
  Linus Boman,              NTNU,                         Norway      (Cholesky decomposition and subsystems)
  Ove Christiansen,         Aarhus University,            Denmark     (CC module)
  Renzo Cimiraglia,         University of Ferrara,        Italy       (NEVPT2)
  Sonia Coriani,            University of Trieste,        Italy       (CC module, MCD in RESPONS)
  Janusz Cukras,            University of Trieste,        Italy       (MChD in RESPONS)
  Paal Dahle,               University of Oslo,           Norway      (Parallelization)
  Erik K. Dalskov,          UNI-C,                        Denmark     (SOPPA)
  Thomas Enevoldsen,        Univ. of Southern Denmark,    Denmark     (SOPPA)
  Janus J. Eriksen,         Aarhus University,            Denmark     (Polarizable embedding model, TDA)
  Rasmus Faber,             University of Copenhagen,     Denmark     (Vib.avg. NMR with SOPPA, parallel AO-SOPPA)
  Berta Fernandez,          U. of Santiago de Compostela, Spain       (doublet spin, ESR in RESPONS)
  Lara Ferrighi,            Aarhus University,            Denmark     (PCM Cubic response)
  Heike Fliegl,             University of Oslo,           Norway      (CCSD(R12))
  Luca Frediani,            UiT The Arctic U. of Norway,  Norway      (PCM)
  Bin Gao,                  UiT The Arctic U. of Norway,  Norway      (Gen1Int library)
  Christof Haettig,         Ruhr-University Bochum,       Germany     (CC module)
  Kasper Hald,              Aarhus University,            Denmark     (CC module)
  Asger Halkier,            Aarhus University,            Denmark     (CC module)
  Frederik Beyer Hansen,    University of Copenhagen,     Denmark     (Parallel AO-SOPPA)
  Erik D. Hedegaard,        Univ. of Southern Denmark,    Denmark     (Polarizable embedding model, QM/MM)
  Hanne Heiberg,            University of Oslo,           Norway      (geometry analysis, selected one-electron integrals)
  Trygve Helgaker,          University of Oslo,           Norway      (DALTON; ABACUS, ERI, DFT modules, London, and much more)
  Alf Christian Hennum,     University of Oslo,           Norway      (Parity violation)
  Hinne Hettema,            University of Auckland,       New Zealand (quadratic response in RESPONS; SIRIUS supersymmetry)
  Eirik Hjertenaes,         NTNU,                         Norway      (Cholesky decomposition)
  Maria Francesca Iozzi,    University of Oslo,           Norway      (RPA)
  Brano Jansik              Technical Univ. of Ostrava    Czech Rep.  (DFT cubic response)
  Hans Joergen Aa. Jensen,  Univ. of Southern Denmark,    Denmark     (DALTON; SIRIUS, RESPONS, ABACUS modules, London, and much more)
  Dan Jonsson,              UiT The Arctic U. of Norway,  Norway      (cubic response in RESPONS module)
  Poul Joergensen,          Aarhus University,            Denmark     (RESPONS, ABACUS, and CC modules)
  Maciej Kaminski,          University of Warsaw,         Poland      (CPPh in RESPONS)
  Joanna Kauczor,           Linkoeping University,        Sweden      (Complex polarization propagator (CPP) module)
  Sheela Kirpekar,          Univ. of Southern Denmark,    Denmark     (Mass-velocity & Darwin integrals)
  Wim Klopper,              KIT Karlsruhe,                Germany     (R12 code in CC, SIRIUS, and ABACUS modules)
  Stefan Knecht,            ETH Zurich,                   Switzerland (Parallel CI and MCSCF)
  Rika Kobayashi,           Australian National Univ.,    Australia   (DIIS in CC, London in MCSCF)
  Henrik Koch,              NTNU,                         Norway      (CC module, Cholesky decomposition)
  Jacob Kongsted,           Univ. of Southern Denmark,    Denmark     (Polarizable embedding model, QM/MM)
  Andrea Ligabue,           University of Modena,         Italy       (CTOCD, AOSOPPA)
  Nanna H. List             Univ. of Southern Denmark,    Denmark     (Polarizable embedding model)
  Ola B. Lutnaes,           University of Oslo,           Norway      (DFT Hessian)
  Juan I. Melo,             University of Buenos Aires,   Argentina   (LRESC, Relativistic Effects on NMR Shieldings)
  Kurt V. Mikkelsen,        University of Copenhagen,     Denmark     (MC-SCRF and QM/MM)
  Rolf H. Myhre,            NTNU,                         Norway      (Cholesky, subsystems and ECC2)
  Christian Neiss,          Univ. Erlangen-Nuernberg,     Germany     (CCSD(R12))
  Christian B. Nielsen,     University of Copenhagen,     Denmark     (QM/MM)
  Patrick Norman,           Linkoeping University,        Sweden      (Cubic response and complex frequency response in RESPONS)
  Jeppe Olsen,              Aarhus University,            Denmark     (SIRIUS CI/density modules)
  Jogvan Magnus H. Olsen,   Univ. of Southern Denmark,    Denmark     (Polarizable embedding model, QM/MM)
  Anders Osted,             Copenhagen University,        Denmark     (QM/MM)
  Martin J. Packer,         University of Sheffield,      UK          (SOPPA)
  Filip Pawlowski,          Kazimierz Wielki University,  Poland      (CC3)
  Morten N. Pedersen,       Univ. of Southern Denmark,    Denmark     (Polarizable embedding model)
  Thomas B. Pedersen,       University of Oslo,           Norway      (Cholesky decomposition)
  Patricio F. Provasi,      University of Northeastern,   Argentina   (Analysis of coupling constants in localized orbitals)
  Zilvinas Rinkevicius,     KTH Stockholm,                Sweden      (open-shell DFT, ESR)
  Elias Rudberg,            KTH Stockholm,                Sweden      (DFT grid and basis info)
  Torgeir A. Ruden,         University of Oslo,           Norway      (Numerical derivatives in ABACUS)
  Kenneth Ruud,             UiT The Arctic U. of Norway,  Norway      (DALTON; ABACUS magnetic properties and much more)
  Pawel Salek,              KTH Stockholm,                Sweden      (DALTON; DFT code)
  Claire C. M. Samson       University of Karlsruhe       Germany     (Boys localization, r12 integrals in ERI)
  Alfredo Sanchez de Meras, University of Valencia,       Spain       (CC module, Cholesky decomposition)
  Trond Saue,               Paul Sabatier University,     France      (direct Fock matrix construction)
  Stephan P. A. Sauer,      University of Copenhagen,     Denmark     (SOPPA(CCSD), SOPPA prop., AOSOPPA, vibrational g-factors)
  Bernd Schimmelpfennig,    Forschungszentrum Karlsruhe,  Germany     (AMFI module)
  Kristian Sneskov,         Aarhus University,            Denmark     (Polarizable embedding model, QM/MM)
  Arnfinn H. Steindal,      UiT The Arctic U. of Norway,  Norway      (parallel QM/MM, Polarizable embedding model)
  Casper Steinmann,         Univ. of Southern Denmark,    Denmark     (QFIT, Polarizable embedding model)
  K. O. Sylvester-Hvid,     University of Copenhagen,     Denmark     (MC-SCRF)
  Peter R. Taylor,          VLSCI/Univ. of Melbourne,     Australia   (Symmetry handling ABACUS, integral transformation)
  Andrew M. Teale,          University of Nottingham,     England     (DFT-AC, DFT-D)
  David P. Tew,             University of Bristol,        England     (CCSD(R12))
  Olav Vahtras,             KTH Stockholm,                Sweden      (triplet response, spin-orbit, ESR, TDDFT, open-shell DFT)
  David J. Wilson,          La Trobe University,          Australia   (DFT Hessian and DFT magnetizabilities)
  Hans Agren,               KTH Stockholm,                Sweden      (SIRIUS module, RESPONS, MC-SCRF solvation model)
 --------------------------------------------------------------------------------

     Date and time (Linux)  : Tue May 31 11:27:00 2016
     Host name              : olav-ThinkPad-W540                      

 * Work memory size             :    64000000 =  488.28 megabytes.

 * Directories for basis set searches:
   1) /home/olav/dev/daltonprogram/issues/Clorine
   2) /home/olav/dev/daltonprogram/dalton/build/master/basis


Compilation information
-----------------------

 Who compiled             | olav
 Host                     | olav-ThinkPad-W540
 System                   | Linux-4.4.0-21-generic
 CMake generator          | Unix Makefiles
 Processor                | x86_64
 64-bit integers          | OFF
 MPI                      | ON
 Fortran compiler         | /usr/bin/mpif90
 Fortran compiler version | GNU Fortran (Ubuntu 5.3.1-14ubuntu2) 5.3.1 2016041
                          | 3
 C compiler               | /usr/bin/mpicc
 C compiler version       | gcc (Ubuntu 5.3.1-14ubuntu2) 5.3.1 20160413
 C++ compiler             | /usr/bin/mpicxx
 C++ compiler version     | unknown
 BLAS                     | /usr/lib/libblas.so
 LAPACK                   | /usr/lib/liblapack.so
 Static linking           | OFF
 Last Git revision        | b1631daed6a54e64d3a1565428a692c784e53882
 Git branch               | master
 Configuration time       | 2016-05-30 17:59:32.615611

 * Sequential calculation.


   Content of the .dal input file
 ----------------------------------

**DALTON
.RUN RESPONSE
**INTEGRAL
.SPIN-ORBIT
**WAVE FUNCTION
.CI
*PRINT
.CMOPRI
*CONFIG
.SPIN MULT
 2
.INACTIVE
 3 1 1 0 2 0 0 0
.ELECTRONS
 3
.CAS SPACE
 0 1 1 0 0 0 0 0
.SYMMETRY
 2
*OPTIMI
.DETERMINANTS
*ORBITAL
!.SUPSYM
.MOSTART
NEWORB
**RESPONSE
*LINEAR
.SINGLE
.ROOTS
 0 0 1 0 0 0 0 0
.PROPRT
Z2SPNORB
.PRINT
 25
**END OF


   Content of the .mol file
 ----------------------------

BASIS
cc-pCVDZ
Clorine atom
==========
Atomtypes=1
Charge=17 Atoms=1
Ar    0 0 0


       *******************************************************************
       *********** Output from DALTON general input processing ***********
       *******************************************************************

 --------------------------------------------------------------------------------
   Overall default print level:    0
   Print level for DALTON.STAT:    1

    HERMIT 1- and 2-electron integral sections will be executed
    "Old" integral transformation used (limited to max 255 basis functions)
    Wave function sections will be executed (SIRIUS module)
    Dynamic molecular response properties section will be executed (RESPONSE module)
 --------------------------------------------------------------------------------


   ****************************************************************************
   *************** Output of molecule and basis set information ***************
   ****************************************************************************


    The two title cards from your ".mol" input:
    ------------------------------------------------------------------------
 1: Clorine atom                                                            
 2: ==========                                                              
    ------------------------------------------------------------------------

  Atomic type no.    1
  --------------------
  Nuclear charge:  17.00000
  Number of symmetry independent centers:    1
  Number of basis sets to read;    1
  Basis set file used for this atomic type with Z =  17 :
     "/home/olav/dev/daltonprogram/dalton/build/master/basis/cc-pCVDZ"


                      SYMADD: Requested addition of symmetry
                      --------------------------------------

 Symmetry test threshold:  5.00E-06

@   The molecule is centered at center of mass and rotated
@   so principal axes of inertia are along coordinate axes.

 Symmetry class found: D(oo,h)        

 Symmetry Independent Centres             
 ----------------------------
      17 :      0.00000000     0.00000000     0.00000000  Isotope  1

 The following elements were found:   X  Y  Z  


                         SYMGRP: Point group information
                         -------------------------------

@    Full point group is: D(oo,h)        
@    Represented as:      D2h

@  * The irrep name for each symmetry:    1: Ag     2: B3u    3: B2u    4: B1g    5: B1u    6: B2g    7: B3g    8: Au 


   * The point group was generated by:

      Reflection in the yz-plane
      Reflection in the xz-plane
      Reflection in the xy-plane

   * Group multiplication table

        |  E   C2z  C2y  C2x   i   Oxy  Oxz  Oyz
   -----+----------------------------------------
     E  |  E   C2z  C2y  C2x   i   Oxy  Oxz  Oyz
    C2z | C2z   E   C2x  C2y  Oxy   i   Oyz  Oxz
    C2y | C2y  C2x   E   C2z  Oxz  Oyz   i   Oxy
    C2x | C2x  C2y  C2z   E   Oyz  Oxz  Oxy   i 
     i  |  i   Oxy  Oxz  Oyz   E   C2z  C2y  C2x
    Oxy | Oxy   i   Oyz  Oxz  C2z   E   C2x  C2y
    Oxz | Oxz  Oyz   i   Oxy  C2y  C2x   E   C2z
    Oyz | Oyz  Oxz  Oxy   i   C2x  C2y  C2z   E 

   * Character table

        |  E   C2z  C2y  C2x   i   Oxy  Oxz  Oyz
   -----+----------------------------------------
    Ag  |   1    1    1    1    1    1    1    1
    B3u |   1   -1   -1    1   -1    1    1   -1
    B2u |   1   -1    1   -1   -1    1   -1    1
    B1g |   1    1   -1   -1    1    1   -1   -1
    B1u |   1    1   -1   -1   -1   -1    1    1
    B2g |   1   -1    1   -1    1   -1    1   -1
    B3g |   1   -1   -1    1    1   -1   -1    1
    Au  |   1    1    1    1   -1   -1   -1   -1

   * Direct product table

        | Ag   B3u  B2u  B1g  B1u  B2g  B3g  Au 
   -----+----------------------------------------
    Ag  | Ag   B3u  B2u  B1g  B1u  B2g  B3g  Au 
    B3u | B3u  Ag   B1g  B2u  B2g  B1u  Au   B3g
    B2u | B2u  B1g  Ag   B3u  B3g  Au   B1u  B2g
    B1g | B1g  B2u  B3u  Ag   Au   B3g  B2g  B1u
    B1u | B1u  B2g  B3g  Au   Ag   B3u  B2u  B1g
    B2g | B2g  B1u  Au   B3g  B3u  Ag   B1g  B2u
    B3g | B3g  Au   B1u  B2g  B2u  B1g  Ag   B3u
    Au  | Au   B3g  B2g  B1u  B1g  B2u  B3u  Ag 


                                 Isotopic Masses
                                 ---------------

                           Ar         34.968853

                       Total mass:    34.968853 amu
                       Natural abundance:  75.770 %

 Center-of-mass coordinates (a.u.):    0.000000    0.000000    0.000000


  Atoms and basis sets
  --------------------

  Number of atom types :    1
  Total number of atoms:    1

  Basis set used is "cc-pCVDZ" from the basis set library.

  label    atoms   charge   prim   cont     basis
  ----------------------------------------------------------------------
  Ar          1   17.0000    50    27      [13s9p2d|5s4p2d]                                   
  ----------------------------------------------------------------------
  total:      1   17.0000    50    27
  ----------------------------------------------------------------------
  Spherical harmonic basis used.

  Threshold for neglecting AO integrals:  1.00D-12


  Cartesian Coordinates (a.u.)
  ----------------------------

  Total number of coordinates:    3
  Ar      :     1  x   0.0000000000    2  y   0.0000000000    3  z   0.0000000000


  Symmetry Coordinates
  --------------------

  Number of coordinates in each symmetry:     0    1    1    0    1    0    0    0

  Symmetry  B3u ( 2)

    1   Ar    x    1

  Symmetry  B2u ( 3)

    2   Ar    y    2

  Symmetry  B1u ( 5)

    3   Ar    z    3


@ This is an atomic calculation.


  Symmetry Orbitals
  -----------------

  Number of orbitals in each symmetry:           9    4    4    2    4    2    2    0


  Symmetry  Ag ( 1)

    1     Ar       1s         1
    2     Ar       1s         2
    3     Ar       1s         3
    4     Ar       1s         4
    5     Ar       1s         5
    6     Ar       3d0       20
    7     Ar       3d2+      22
    8     Ar       3d0       25
    9     Ar       3d2+      27


  Symmetry  B3u( 2)

   10     Ar       2px        6
   11     Ar       2px        9
   12     Ar       2px       12
   13     Ar       2px       15


  Symmetry  B2u( 3)

   14     Ar       2py        7
   15     Ar       2py       10
   16     Ar       2py       13
   17     Ar       2py       16


  Symmetry  B1g( 4)

   18     Ar       3d2-      18
   19     Ar       3d2-      23


  Symmetry  B1u( 5)

   20     Ar       2pz        8
   21     Ar       2pz       11
   22     Ar       2pz       14
   23     Ar       2pz       17


  Symmetry  B2g( 6)

   24     Ar       3d1+      21
   25     Ar       3d1+      26


  Symmetry  B3g( 7)

   26     Ar       3d1-      19
   27     Ar       3d1-      24


  No orbitals in symmetry  Au ( 8)

  Symmetries of electric field:  B3u(2)  B2u(3)  B1u(5)

  Symmetries of magnetic field:  B3g(7)  B2g(6)  B1g(4)


                     .---------------------------------------.
                     | Starting in Integral Section (HERMIT) |
                     `---------------------------------------'



 ***************************************************************************************
 ****************** Output from **INTEGRALS input processing (HERMIT) ******************
 ***************************************************************************************



    *************************************************************************
    ****************** Output from HERMIT input processing ******************
    *************************************************************************


 Default print level:        1

 * Nuclear model: Point charge

 Calculation of one- and two-electron Hamiltonian integrals.

 Calculate two-electron spin-orbit integrals

 The following one-electron property integrals are calculated as requested:
          - overlap integrals
          - spatial spin-orbit integrals

 Center of mass  (bohr):      0.000000000000      0.000000000000      0.000000000000
 Operator center (bohr):      0.000000000000      0.000000000000      0.000000000000
 Gauge origin    (bohr):      0.000000000000      0.000000000000      0.000000000000
 Dipole origin   (bohr):      0.000000000000      0.000000000000      0.000000000000


     ************************************************************************
     ************************** Output from HERINT **************************
     ************************************************************************


 Threshold for neglecting two-electron integrals:  1.00D-12
 HERMIT - Number of two-electron integrals written:        9101 ( 12.7% )
 HERMIT - Megabytes written:                              0.110


   Two-electron spin-orbit integrals
   =================================
   Spin-orbit 2-electron CPU  time      0. seconds
   Spin-orbit 2-electron wall time      0. seconds
  Total CPU  time used in HERMIT:   0.05 seconds
  Total wall time used in HERMIT:   0.04 seconds


                        .----------------------------------.
                        | End of Integral Section (HERMIT) |
                        `----------------------------------'



                   .--------------------------------------------.
                   | Starting in Wave Function Section (SIRIUS) |
                   `--------------------------------------------'


     WARNING  Reference state is required for CI response and CI-NO
     WARNING  ".STATE" was not specified for "*CI INPUT",
     WARNING  the reference state is set to be state no.  1

 **********************************************************************
 *SIRIUS* a direct, restricted step, second order MCSCF program       *
 **********************************************************************

 
     Date and time (Linux)  : Tue May 31 11:27:00 2016
     Host name              : olav-ThinkPad-W540                      

 Title lines from ".mol" input file:
     Clorine atom                                                            
     ==========                                                              

 Print level on unit LUPRI =   2 is   0
 Print level on unit LUW4  =   2 is   5

@    Configuration interaction calculation.

@    CI response calculation.

@    CI type: user specified active spaces.
@              Type: complete active space calculation (CAS).

 Initial molecular orbitals are obtained according to
 ".MOSTART NEWORB" input option

     Wave function specification
     ============================
@    Wave function type        --- CI ---
@    Number of closed shell electrons          14
@    Number of electrons in active shells       3
@    Total charge of the molecule               0

@    Spin multiplicity and 2 M_S                2         1
@    Total number of symmetries                 8 (point group: D2h)
@    Reference state symmetry                   2 (irrep name : B3u)

     Orbital specifications
     ======================
@    Abelian symmetry species          All |    1    2    3    4    5    6    7    8
@                                          |  Ag   B3u  B2u  B1g  B1u  B2g  B3g  Au 
                                       --- |  ---  ---  ---  ---  ---  ---  ---  ---
@    Inactive orbitals                   7 |    3    1    1    0    2    0    0    0
@    Active orbitals                     2 |    0    1    1    0    0    0    0    0
@    Secondary orbitals                 18 |    6    2    2    2    2    2    2    0
@    Total number of orbitals           27 |    9    4    4    2    4    2    2    0
@    Number of basis functions          27 |    9    4    4    2    4    2    2    0

     Optimization information
     ========================
@    Number of determinants                   1
@    Number of orbital rotations              0
     ------------------------------------------
@    Total number of variables                1

     Maximum number of CI iterations         25
     Threshold for CI convergence      1.00D-05
     Number of CI roots to converge           1

@    Reference state in CI response calculation :       1


 ----- Output from SIRIUS CI module (CICTL) -----




 Integral transformation: Total CPU and WALL times (sec)       0.000       0.001
     (Precalculated two-electron integrals are transformed to P-supermatrix elements.
      Threshold for discarding integrals :  1.00D-12 )


 Convergence threshold for CI optimization :     0.00001000


 The requested root number is now converged.


 *** CI converged in  1 iterations.



@ Final CI energies and residuals in symmetry 2 (irrep B3u)
@    1     -459.466835814683407       0.00D+00

 CPU and wall time for CI :       0.000       0.002


                       .-----------------------------------.
                       | --- Final results from SIRIUS --- |
                       `-----------------------------------'


@    Spin multiplicity:           2
@    Spatial symmetry:            2 ( irrep  B3u in D2h )
@    Total charge of molecule:    0

@    This was a CI calculation.

 
     Date and time (Linux)  : Tue May 31 11:27:00 2016
     Host name              : olav-ThinkPad-W540                      

 Occupancies of natural orbitals
 -------------------------------

 Symmetry 1  ( Ag ) -- Total occupation in this symmetry is   6.000000000

   2.000000000   2.000000000   2.000000000

 Symmetry 2  ( B3u) -- Total occupation in this symmetry is   3.000000000

   2.000000000   1.000000000

 Symmetry 3  ( B2u) -- Total occupation in this symmetry is   4.000000000

   2.000000000   2.000000000

 Symmetry 4  ( B1g) -- No occupied orbitals

 Symmetry 5  ( B1u) -- Total occupation in this symmetry is   4.000000000

   2.000000000   2.000000000

 Symmetry 6  ( B2g) -- No occupied orbitals

 Symmetry 7  ( B3g) -- No occupied orbitals

 Symmetry 8  ( Au ) -- No occupied orbitals

File label for MO orbitals:  31May16    CIORB  

 Molecular orbitals for symmetry species 1  (Ag )
 ------------------------------------------------

    Orbital         1        2        3        4        5        6        7
   1 Ar  :1s    -0.9999   0.0001   0.0002   0.1538   0.0000  -0.0000  -0.0000
   2 Ar  :1s     0.0001  -0.9999   0.0002   1.2269   0.0000  -0.0000  -0.0000
   3 Ar  :1s    -0.0001  -0.0001  -1.0003   3.5031  -0.0000  -0.0000  -0.0000
   4 Ar  :1s     0.0001   0.0001   0.0003  -3.8529   0.0000   0.0000  -0.0000
   5 Ar  :1s    -0.0002  -0.0002  -0.0004   0.0359  -0.0000   0.0000   0.0000
   6 Ar  :3d0   -0.0000  -0.0000   0.0000   0.0000   0.0000   0.0380   0.0000
   7 Ar  :3d2+   0.0000  -0.0000   0.0000  -0.0000   0.0380   0.0000  -1.0017
   8 Ar  :3d0   -0.0000  -0.0000  -0.0000   0.0000   0.0000   0.9967   0.0000
   9 Ar  :3d2+  -0.0000   0.0000  -0.0000  -0.0000   0.9967  -0.0000   0.1068

    Orbital         8        9
   1 Ar  :1s     0.0000   1.6745
   2 Ar  :1s     0.0000   1.8372
   3 Ar  :1s    -0.0000  -1.8749
   4 Ar  :1s    -0.0000   1.5409
   5 Ar  :1s    -0.0000  -3.1476
   6 Ar  :3d0   -1.0017   0.0000
   8 Ar  :3d0    0.1068   0.0000

 Molecular orbitals for symmetry species 2  (B3u)
 ------------------------------------------------

    Orbital         1        2        3        4
   1 Ar  :2px    1.0001   0.0005  -0.2260  -2.2382
   2 Ar  :2px    0.0000   1.0002  -1.8097  -0.6834
   3 Ar  :2px   -0.0000  -0.0002   2.0758   0.5473
   4 Ar  :2px   -0.0001  -0.0005   0.0374   2.4303

 Molecular orbitals for symmetry species 3  (B2u)
 ------------------------------------------------

    Orbital         1        2        3        4
   1 Ar  :2py    1.0001   0.0005  -0.2260  -2.2382
   2 Ar  :2py    0.0000   1.0002  -1.8097  -0.6834
   3 Ar  :2py   -0.0000  -0.0002   2.0758   0.5473
   4 Ar  :2py   -0.0001  -0.0005   0.0374   2.4303

 Molecular orbitals for symmetry species 4  (B1g)
 ------------------------------------------------

    Orbital         1        2
   1 Ar  :3d2-   0.0380  -1.0017
   2 Ar  :3d2-   0.9967   0.1068

 Molecular orbitals for symmetry species 5  (B1u)
 ------------------------------------------------

    Orbital         1        2        3        4
   1 Ar  :2pz    1.0001   0.0005  -0.2260  -2.2382
   2 Ar  :2pz    0.0000   1.0002  -1.8097  -0.6834
   3 Ar  :2pz   -0.0000  -0.0002   2.0758   0.5473
   4 Ar  :2pz   -0.0001  -0.0005   0.0374   2.4303

 Molecular orbitals for symmetry species 6  (B2g)
 ------------------------------------------------

    Orbital         1        2
   1 Ar  :3d1+   0.0380  -1.0017
   2 Ar  :3d1+   0.9967   0.1068

 Molecular orbitals for symmetry species 7  (B3g)
 ------------------------------------------------

    Orbital         1        2
   1 Ar  :3d1-   0.0380  -1.0017
   2 Ar  :3d1-   0.9967   0.1068

  Total CPU  time used in SIRIUS :   0.01 seconds
  Total wall time used in SIRIUS :   0.01 seconds

 
     Date and time (Linux)  : Tue May 31 11:27:00 2016
     Host name              : olav-ThinkPad-W540                      

 NOTE:    1 warnings have been issued.
 Check output, result, and error files for "WARNING".


                     .---------------------------------------.
                     | End of Wave Function Section (SIRIUS) |
                     `---------------------------------------'



                 .------------------------------------------------.
                 | Starting in Dynamic Property Section (RESPONS) |
                 `------------------------------------------------'


 ------------------------------------------------------------------------------
  RESPONSE  -  an MCSCF, MC-srDFT, DFT, and SOPPA response property program
 ------------------------------------------------------------------------------

 WARNING SIR_INTOPEN, old integral transformation not found as expected, ICASE = 3
 - ICASE = 1: MO integral file MOTWOINT does not exist
 - ICASE = 2: no MO integrals on MOTWOINT
 - ICASE = 3: transformation level on MOTWOINT not sufficient
 ITRLVL requested & ITRLVL on MOTWOINT :    4    0

 NSETUP: MO transformation level too low or no MO integral file found.
 NSETUP: generating MO 2-el. integral file. Transformation level:  4


 Old direct access AO file found, SORTA skipped.

 Integral transformation: Total CPU and WALL times (sec)       0.000       0.001

 Sorting integrals to Dirac format: Total CPU and WALL times (sec)       0.000       0.001

 This is a configuration interaction response calculation.
   Note: this is equivalent to a CI sum-over-states calculation of properties.


 -------- OUTPUT FROM RESPONSE INPUT PROCESSING --------




  Linear Response single residue calculation
 -------------------------------------------


    4 input options by user.

 Print level                                    : IPRPP  =  25
 Maximum number of iterations for eigenval.eqs. : MAXITP =  60
 Threshold for convergence of eigenvalue eqs.   : THCPP  = 1.000D-03
 Maximum iterations in optimal orbital algorithm: MAXITO =   5

 General print level in RESPONS is IPRRSP =        25

 RSPSYM: number of property vectors :

 NGPPP(I) ,I=1,NSYM    0    0    0    1    0    0    0    0
 NGPLR(I) ,I=1,NSYM    0    0    0    0    0    0    0    0
 NGPC6(I) ,I=1,NSYM    0    0    0    0    0    0    0    0
 NAQROP(I),I=1,NSYM    0    0    0    0    0    0    0    0
 NBQROP(I),I=1,NSYM    0    0    0    0    0    0    0    0
 NCQROP(I),I=1,NSYM    0    0    0    0    0    0    0    0
 NASMOP(I),I=1,NSYM    0    0    0    0    0    0    0    0
 NBSMOP(I),I=1,NSYM    0    0    0    0    0    0    0    0
 NESRS(I) ,I=1,NSYM    0    0    0    0    0    0    0    0
 NESRT(I) ,I=1,NSYM    0    0    0    0    0    0    0    0
 NACROP(I),I=1,NSYM    0    0    0    0    0    0    0    0
 NBCROP(I),I=1,NSYM    0    0    0    0    0    0    0    0
 NCCROP(I),I=1,NSYM    0    0    0    0    0    0    0    0
 NDCROP(I),I=1,NSYM    0    0    0    0    0    0    0    0
 NATMOP(I),I=1,NSYM    0    0    0    0    0    0    0    0
 NBTMOP(I),I=1,NSYM    0    0    0    0    0    0    0    0
 NCTMOP(I),I=1,NSYM    0    0    0    0    0    0    0    0
 NATPOP(I),I=1,NSYM    0    0    0    0    0    0    0    0
 NBTPOP(I),I=1,NSYM    0    0    0    0    0    0    0    0

      1 Excitation energies are calculated for symmetry no.    4

      1 property residues are calculated with labels:

               Z2SPNORB

  SYMMETRY   NO.CONV  NO.START NO.SIMULT

         1         0         0         0
         2         0         0         0
         3         0         0         0
         4         1         1         1
         5         0         0         0
         6         0         0         0
         7         0         0         0
         8         0         0         0

 TRACTL_1: Integral transformation abandoned,
           the required MO integrals are already available.

 DRCCTL abandoned: the required MO integrals in Dirac format
 are already available on the MODRCINT file.

 Sorting integrals to Dirac format: Total CPU and WALL times (sec)       0.000       0.000


 MCSCF energy         :     -459.466835814683407
 -- inactive part     :     -456.473554677938637
 --   active part     :       -2.993281136744770
 -- nuclear repulsion :        0.000000000000000

 NISHT,NASHT,NORBT,NBAST,NCREF,IREFSY     7     2    27    27     1     2

 **** RSPMC **** MO coefficients read from SIRIFC for symmetry    1

               Column   1     Column   2     Column   3     Column   4     Column   5     Column   6     Column   7     Column   8
       1      -0.99991682     0.00011133     0.00020959     0.15380576     0.00000000    -0.00000000    -0.00000000     0.00000000
       2       0.00009051    -0.99987619     0.00019088     1.22689137     0.00000000    -0.00000000    -0.00000000     0.00000000
       3      -0.00009512    -0.00011003    -1.00034820     3.50307250    -0.00000000    -0.00000000    -0.00000000    -0.00000000
       4       0.00007876     0.00009317     0.00031618    -3.85286322     0.00000000     0.00000000    -0.00000000    -0.00000000
       5      -0.00015653    -0.00020744    -0.00040439     0.03585981    -0.00000000     0.00000000     0.00000000    -0.00000000
       6      -0.00000000    -0.00000000     0.00000000     0.00000000     0.00000000     0.03799165     0.00000000    -1.00165270
       7       0.00000000    -0.00000000     0.00000000    -0.00000000     0.03799165     0.00000000    -1.00165270    -0.00000000
       8      -0.00000000    -0.00000000    -0.00000000     0.00000000     0.00000000     0.99666886     0.00000000     0.10678330
       9      -0.00000000     0.00000000    -0.00000000    -0.00000000     0.99666886    -0.00000000     0.10678330     0.00000000

               Column   9
       1       1.67453159
       2       1.83719825
       3      -1.87490511
       4       1.54089170
       5      -3.14755281
    ==== End of matrix output ====

 **** RSPMC **** MO coefficients read from SIRIFC for symmetry    2

               Column   1     Column   2     Column   3     Column   4
       1       1.00005991     0.00045453    -0.22597953    -2.23820862
       2       0.00000495     1.00021566    -1.80973457    -0.68342514
       3      -0.00000734    -0.00020118     2.07584956     0.54725615
       4      -0.00006580    -0.00047584     0.03739778     2.43033696
    ==== End of matrix output ====

 **** RSPMC **** MO coefficients read from SIRIFC for symmetry    3

               Column   1     Column   2     Column   3     Column   4
       1       1.00005991     0.00045453    -0.22597953    -2.23820862
       2       0.00000495     1.00021566    -1.80973457    -0.68342514
       3      -0.00000734    -0.00020118     2.07584956     0.54725615
       4      -0.00006580    -0.00047584     0.03739778     2.43033696
    ==== End of matrix output ====

 **** RSPMC **** MO coefficients read from SIRIFC for symmetry    4

               Column   1     Column   2
       1       0.03799165    -1.00165270
       2       0.99666886     0.10678330
    ==== End of matrix output ====

 **** RSPMC **** MO coefficients read from SIRIFC for symmetry    5

               Column   1     Column   2     Column   3     Column   4
       1       1.00005991     0.00045453    -0.22597953    -2.23820862
       2       0.00000495     1.00021566    -1.80973457    -0.68342514
       3      -0.00000734    -0.00020118     2.07584956     0.54725615
       4      -0.00006580    -0.00047584     0.03739778     2.43033696
    ==== End of matrix output ====

 **** RSPMC **** MO coefficients read from SIRIFC for symmetry    6

               Column   1     Column   2
       1       0.03799165    -1.00165270
       2       0.99666886     0.10678330
    ==== End of matrix output ====

 **** RSPMC **** MO coefficients read from SIRIFC for symmetry    7

               Column   1     Column   2
       1       0.03799165    -1.00165270
       2       0.99666886     0.10678330
    ==== End of matrix output ====

 **** RSPMC **** MO coefficients read from SIRIFC for symmetry    8
    ==== End of matrix output ====


                         *******************************
                         *** CI response calculation ***
                         *******************************

 ----------------------------------------------------------------
 ----- Linear response calculation
 ----- Symmetry of excitation/property operator(s)    4  ( B1g)
 ----------------------------------------------------------------

 Number of excitations of this symmetry            1
 Number of response properties of this symmetry    0
 Number of C6/C8 properties of this symmetry       0


 Perturbation symmetry.     KSYMOP:       4
 Perturbation spin symmetry.TRPLET:       F
 Orbital variables.         KZWOPT:       0
 Configuration variables.   KZCONF:       1
 Total number of variables. KZVAR :       1
 --- Output from PHPDET ---
  -- output from FNDMN3 --
  NUMBER OF ELEMENTS OBTAINED IN FNDMN3            1
  MIN AND MAX IN SELECTED SUPSPACE    1.3322676295501878E-014   1.3322676295501878E-014

 EIGENVALUES OF SUBSPACE HAMILTONIAN 

        1.33226763E-14
  RANGE OF EIGENVALUES IN SUBSPACE    1.3322676295501878E-014   1.3322676295501878E-014

 --- IN RSPPP:
  THCPP,MAXRM    1.0000000000000000E-003         600
  KSYMOP,NGPPP(KSYMOP)            4           1
  LWRK ,LWRK1     63999737    62917937
  KEXCNV,NSIM,LWRK2            1           1     1083450



 --- EXCITATION ENERGIES AND TRANSITION MOMENT CALCULATION (MCTDHF) ---

 Operator symmetry = 4  ( B1g); triplet =   F


 MAXIMUM NUMBER OF SIMULTANEOUS TRIAL VECTORS:     120

 MAXIMUM NUMBER OF SIMULTANEOUS TRIAL VECTORS IN RSPNEX:     120
  LINEQ,RESTPP,ORBSPC F F F
  DIMENSION SPECIFIED OF PHP, MAXPHP=         100
  DIMENSION USED , NPCVAR=           1

 RSPORT: b-vector, norm**2:     1 1.00000D+00
           1  START configuration VECTORS USING LOWEST DIAGONAL HESSIAN ELEMENTS
           0  START orbital VECTORS
 AFTER START ROUTINE BINMEM T

 ** RSPCTL MICROITERATION NUMBER    1
 NSIM,MAXSIM,JEXSIM    1  120    1
  NCSIM,NOSIM           1           0

 TRIAL VECTORS FOR RESTART:    1

 INDEX VECTOR FOR E(2) TRANSFORMED TRIAL VECTORS
           1

 IBTYP VECTOR FOR E(2) TRANSFORMED TRIAL VECTORS
          -1

 RSPRED: REDUCED HESSIAN MATRIX:

               Column   1     Column   2
       1     1.332268D-14
       2     0.000000D+00   1.332268D-14
    ==== End of matrix output ====

 RSPRED: REDUCED METRIC MATRIX:

               Column   1     Column   2
       1       1.00000000
       2      -0.00000000    -1.00000000
    ==== End of matrix output ====

 REDUCED EIGENVECTORS BEFORE ORDERING:

               Column   1     Column   2
       1       1.00000000     0.00000000
       2       0.00000000     1.00000000
    ==== End of matrix output ====

 REDUCED EIGENVALUES (2,KZRED):

               Column   1
       1     1.332268D-14
       2    -1.332268D-14
    ==== End of matrix output ====


     (ALFAR + i ALFAI) / BETA are eigenvalues;
   I      ALFAR           ALFAI          BETA
    1   1.332268D-14   0.000000D+00   1.000000D+00
    2  -1.332268D-14   0.000000D+00   1.000000D+00

 Unsorted eigenvalues of [ E(2) , S(2) ] :
         1   1.332268D-14
         2  -1.332268D-14

 Reduced S(2) in eigenvector basis :

               Column   1     Column   2
       1       1.00000000     0.00000000
       2       0.00000000    -1.00000000
    ==== End of matrix output ====

      NUMBER      EIGENVALUE      PAIRED EIGENVALUE
         1      1.33226763D-14     -1.33226763D-14

 REDUCED EIGENVECTORS AFTER ORDERING:

               Column   1     Column   2
       1       1.00000000     0.00000000
       2       0.00000000     1.00000000
    ==== End of matrix output ====


 NUMBER OF EIGENVALUES WITH POSITIVE, ZERO, AND NEGATIVE METRIC:    1    0    1

 THE EIGENVALUES WITH POSITIVE METRIC:
      NUMBER      EIGENVALUE
         1      1.33226763D-14 *** RSPRED  WARNING **** ZERO EIGENVALUE.


 ROOT:  1 RESIDUAL TOT: 0.00000D+00 CONF: 0.00000D+00 ORB: 0.00000D+00
          BNORM: 1.00000D+00 EIVAL: 1.33227D-14

 NUMBER OF TRIAL VECTORS IN THIS LOAD    1   OFFSET FOR THIS LOAD    0
    0 NON-CONVERGED SOLUTION VECTORS THIS LOAD, TOTAL:    0
    0 LINEAR INDEPENDENT TRIAL VECTORS ADDED TO PREVIOUS    0

 *** THE REQUESTED    1 SOLUTION VECTORS CONVERGED

 Convergence of RSP solution vectors, threshold = 1.00D-03
 ---------------------------------------------------------------
 (dimension of paired reduced space:    2)
 RSP solution vector no.    1; norm of residual   0.00D+00

 *** RSPCTL MICROITERATIONS CONVERGED


                                Output from HSOCTL
                                ------------------


 Spin-orbit property vector calculation component =    Z2SPNORB

 Print level in HSOCTL:    25

 Skip one-electron spin-orbit contributions

 Integral transformation: Total CPU and WALL times (sec)       0.012       0.014


 Integral distribution     2    1

               Column   1     Column   2     Column   3     Column   4     Column   5
      18    -1.647026D-19  -4.743136D-19   5.415995D-20  -4.581418D-20   6.430131D-36
      19     3.288367D-18   6.652020D-18  -1.628770D-18   1.382942D-18  -9.934184D-35

               Column   6     Column   7     Column   8     Column   9     Column  10
      14     0.000000D+00   0.000000D+00   0.000000D+00   0.000000D+00   7.524177D-18
      15     0.000000D+00   0.000000D+00   0.000000D+00   0.000000D+00  -1.594826D-18
      16     0.000000D+00   0.000000D+00   0.000000D+00   0.000000D+00   1.630914D-18
      17     0.000000D+00   0.000000D+00   0.000000D+00   0.000000D+00  -5.529328D-18
      18    -4.443093D-20  -1.660053D-38   3.074808D-19  -1.427234D-19   0.000000D+00
      19     3.074808D-19  -2.935221D-35  -4.564976D-18   4.346513D-18   0.000000D+00

               Column  11     Column  12     Column  13     Column  14     Column  15
      10     0.000000D+00   0.000000D+00   0.000000D+00   7.524177D-18  -1.594826D-18
      11     0.000000D+00   0.000000D+00   0.000000D+00  -1.594826D-18   4.064983D-19
      12     0.000000D+00   0.000000D+00   0.000000D+00   1.630914D-18  -4.197334D-19
      13     0.000000D+00   0.000000D+00   0.000000D+00  -5.529328D-18   1.520290D-18
      14    -1.594826D-18   1.630914D-18  -5.529328D-18   0.000000D+00   0.000000D+00
      15     4.064983D-19  -4.197334D-19   1.520290D-18   0.000000D+00   0.000000D+00
      16    -4.197334D-19   4.355150D-19  -1.587415D-18   0.000000D+00   0.000000D+00
      17     1.520290D-18  -1.587415D-18   7.342839D-18   0.000000D+00   0.000000D+00

               Column  16     Column  17     Column  18     Column  19     Column  20
       1     0.000000D+00   0.000000D+00  -1.647026D-19   3.288367D-18   0.000000D+00
       2     0.000000D+00   0.000000D+00  -4.743136D-19   6.652020D-18   0.000000D+00
       3     0.000000D+00   0.000000D+00   5.415995D-20  -1.628770D-18   0.000000D+00
       4     0.000000D+00   0.000000D+00  -4.581418D-20   1.382942D-18   0.000000D+00
       6     0.000000D+00   0.000000D+00  -4.443093D-20   3.074808D-19   0.000000D+00
       8     0.000000D+00   0.000000D+00   3.074808D-19  -4.564976D-18   0.000000D+00
       9     0.000000D+00   0.000000D+00  -1.427234D-19   4.346513D-18   0.000000D+00
      10     1.630914D-18  -5.529328D-18   0.000000D+00   0.000000D+00   0.000000D+00
      11    -4.197334D-19   1.520290D-18   0.000000D+00   0.000000D+00   0.000000D+00
      12     4.355150D-19  -1.587415D-18   0.000000D+00   0.000000D+00   0.000000D+00
      13    -1.587415D-18   7.342839D-18   0.000000D+00   0.000000D+00   0.000000D+00

               Column  21     Column  22     Column  23     Column  24     Column  25
      26     0.000000D+00   0.000000D+00   0.000000D+00   3.847832D-20  -2.662862D-19
      27     0.000000D+00   0.000000D+00   0.000000D+00  -2.662862D-19   3.953385D-18

               Column  26     Column  27
      24     3.847832D-20  -2.662862D-19
      25    -2.662862D-19   3.953385D-18
    ==== End of matrix output ====

 ------ Output from FSOMU ------

 Distribution CD    2    1     inactive   inactive 
 Reordered          2    1
 Symmetry           1    1

 Loop over symmetries

 IPSYM    1

 IPSYM    2

 IPSYM    3

 IPSYM    4

 Inactive exchange terms
 PC contribution  18: 19    2

               Column   1
       1    -1.647026D-19
       2     3.288367D-18
    ==== End of matrix output ====
 PD contribution  18: 19    1

               Column   1
       1    -4.743136D-19
       2     6.652020D-18
    ==== End of matrix output ====

 IPSYM    5

 IPSYM    6

 IPSYM    7

 IPSYM    8


 Integral distribution     3    1

               Column   1     Column   2     Column   3     Column   4     Column   5
      18     2.926134D-18   9.865849D-18   1.262949D-18  -1.945357D-19  -6.854989D-35
      19    -5.818160D-17  -1.258289D-16   3.016628D-17  -2.548606D-17   1.889342D-33

               Column   6     Column   7     Column   8     Column   9     Column  10
      14     0.000000D+00   0.000000D+00   0.000000D+00   0.000000D+00  -1.378396D-16
      15     0.000000D+00   0.000000D+00   0.000000D+00   0.000000D+00   2.799452D-17
      16     0.000000D+00   0.000000D+00   0.000000D+00   0.000000D+00  -2.854333D-17
      17     0.000000D+00   0.000000D+00   0.000000D+00   0.000000D+00   9.466357D-17
      18     2.238178D-18   7.157814D-35  -5.901260D-18   2.266502D-18   0.000000D+00
      19    -5.901260D-18   5.253986D-34   8.639283D-17  -7.571699D-17   0.000000D+00

               Column  11     Column  12     Column  13     Column  14     Column  15
      10     0.000000D+00   0.000000D+00   0.000000D+00  -1.378396D-16   2.799452D-17
      11     0.000000D+00   0.000000D+00   0.000000D+00   2.799452D-17  -8.788313D-18
      12     0.000000D+00   0.000000D+00   0.000000D+00  -2.854333D-17   8.499331D-18
      13     0.000000D+00   0.000000D+00   0.000000D+00   9.466357D-17  -2.689628D-17
      14     2.799452D-17  -2.854333D-17   9.466357D-17   0.000000D+00   0.000000D+00
      15    -8.788313D-18   8.499331D-18  -2.689628D-17   0.000000D+00   0.000000D+00
      16     8.499331D-18  -8.964534D-18   2.835077D-17   0.000000D+00   0.000000D+00
      17    -2.689628D-17   2.835077D-17  -1.323064D-16   0.000000D+00   0.000000D+00

               Column  16     Column  17     Column  18     Column  19     Column  20
       1     0.000000D+00   0.000000D+00   2.926134D-18  -5.818160D-17   0.000000D+00
       2     0.000000D+00   0.000000D+00   9.865849D-18  -1.258289D-16   0.000000D+00
       3     0.000000D+00   0.000000D+00   1.262949D-18   3.016628D-17   0.000000D+00
       4     0.000000D+00   0.000000D+00  -1.945357D-19  -2.548606D-17   0.000000D+00
       6     0.000000D+00   0.000000D+00   2.238178D-18  -5.901260D-18   0.000000D+00
       8     0.000000D+00   0.000000D+00  -5.901260D-18   8.639283D-17   0.000000D+00
       9     0.000000D+00   0.000000D+00   2.266502D-18  -7.571699D-17   0.000000D+00
      10    -2.854333D-17   9.466357D-17   0.000000D+00   0.000000D+00   0.000000D+00
      11     8.499331D-18  -2.689628D-17   0.000000D+00   0.000000D+00   0.000000D+00
      12    -8.964534D-18   2.835077D-17   0.000000D+00   0.000000D+00   0.000000D+00
      13     2.835077D-17  -1.323064D-16   0.000000D+00   0.000000D+00   0.000000D+00

               Column  21     Column  22     Column  23     Column  24     Column  25
      26     0.000000D+00   0.000000D+00   0.000000D+00  -1.938319D-18   5.110641D-18
      27     0.000000D+00   0.000000D+00   0.000000D+00   5.110641D-18  -7.481838D-17

               Column  26     Column  27
      24    -1.938319D-18   5.110641D-18
      25     5.110641D-18  -7.481838D-17
    ==== End of matrix output ====

 ------ Output from FSOMU ------

 Distribution CD    3    1     inactive   inactive 
 Reordered          3    1
 Symmetry           1    1

 Loop over symmetries

 IPSYM    1

 IPSYM    2

 IPSYM    3

 IPSYM    4

 Inactive exchange terms
 PC contribution  18: 19    3

               Column   1
       1     2.926134D-18
       2    -5.818160D-17
    ==== End of matrix output ====
 PD contribution  18: 19    1

               Column   1
       1     1.262949D-18
       2     3.016628D-17
    ==== End of matrix output ====

 IPSYM    5

 IPSYM    6

 IPSYM    7

 IPSYM    8


 Integral distribution     3    2

               Column   1     Column   2     Column   3     Column   4     Column   5
      18    -2.093592D-19   7.593039D-18   3.024186D-18  -2.526629D-18  -4.699663D-35
      19     6.114324D-18  -5.576615D-17   7.959968D-18  -6.649716D-18   8.809171D-34

               Column   6     Column   7     Column   8     Column   9     Column  10
      14     0.000000D+00   0.000000D+00   0.000000D+00   0.000000D+00  -2.238778D-17
      15     0.000000D+00   0.000000D+00   0.000000D+00   0.000000D+00  -1.671387D-18
      16     0.000000D+00   0.000000D+00   0.000000D+00   0.000000D+00   2.295564D-18
      17     0.000000D+00   0.000000D+00   0.000000D+00   0.000000D+00  -3.286702D-17
      18     2.340357D-18   1.350559D-34  -3.899780D-18  -3.979663D-18   0.000000D+00
      19    -3.899780D-18  -1.603793D-34   3.981270D-17   1.590089D-17   0.000000D+00

               Column  11     Column  12     Column  13     Column  14     Column  15
      10     0.000000D+00   0.000000D+00   0.000000D+00  -2.238778D-17  -1.671387D-18
      11     0.000000D+00   0.000000D+00   0.000000D+00  -1.671387D-18  -2.137312D-18
      12     0.000000D+00   0.000000D+00   0.000000D+00   2.295564D-18   2.227319D-18
      13     0.000000D+00   0.000000D+00   0.000000D+00  -3.286702D-17   2.493314D-18
      14    -1.671387D-18   2.295564D-18  -3.286702D-17   0.000000D+00   0.000000D+00
      15    -2.137312D-18   2.227319D-18   2.493314D-18   0.000000D+00   0.000000D+00
      16     2.227319D-18  -2.201101D-18  -1.755834D-18   0.000000D+00   0.000000D+00
      17     2.493314D-18  -1.755834D-18   2.779836D-18   0.000000D+00   0.000000D+00

               Column  16     Column  17     Column  18     Column  19     Column  20
       1     0.000000D+00   0.000000D+00  -2.093592D-19   6.114324D-18   0.000000D+00
       2     0.000000D+00   0.000000D+00   7.593039D-18  -5.576615D-17   0.000000D+00
       3     0.000000D+00   0.000000D+00   3.024186D-18   7.959968D-18   0.000000D+00
       4     0.000000D+00   0.000000D+00  -2.526629D-18  -6.649716D-18   0.000000D+00
       6     0.000000D+00   0.000000D+00   2.340357D-18  -3.899780D-18   0.000000D+00
       8     0.000000D+00   0.000000D+00  -3.899780D-18   3.981270D-17   0.000000D+00
       9     0.000000D+00   0.000000D+00  -3.979663D-18   1.590089D-17   0.000000D+00
      10     2.295564D-18  -3.286702D-17   0.000000D+00   0.000000D+00   0.000000D+00
      11     2.227319D-18   2.493314D-18   0.000000D+00   0.000000D+00   0.000000D+00
      12    -2.201101D-18  -1.755834D-18   0.000000D+00   0.000000D+00   0.000000D+00
      13    -1.755834D-18   2.779836D-18   0.000000D+00   0.000000D+00   0.000000D+00

               Column  21     Column  22     Column  23     Column  24     Column  25
      26     0.000000D+00   0.000000D+00   0.000000D+00  -2.026809D-18   3.377308D-18
      27     0.000000D+00   0.000000D+00   0.000000D+00   3.377308D-18  -3.447881D-17

               Column  26     Column  27
      24    -2.026809D-18   3.377308D-18
      25     3.377308D-18  -3.447881D-17
    ==== End of matrix output ====

 ------ Output from FSOMU ------

 Distribution CD    3    2     inactive   inactive 
 Reordered          3    2
 Symmetry           1    1

 Loop over symmetries

 IPSYM    1

 IPSYM    2

 IPSYM    3

 IPSYM    4

 Inactive exchange terms
 PC contribution  18: 19    3

               Column   1
       1     7.593039D-18
       2    -5.576615D-17
    ==== End of matrix output ====
 PD contribution  18: 19    2

               Column   1
       1     3.024186D-18
       2     7.959968D-18
    ==== End of matrix output ====

 IPSYM    5

 IPSYM    6

 IPSYM    7

 IPSYM    8


 Integral distribution     4    1

               Column   1     Column   2     Column   3     Column   4     Column   5
      18    -3.677109D-20  -1.383439D-19  -1.592785D-19   2.039824D-20  -4.104576D-36
      19     7.298579D-19   1.604403D-18  -3.997637D-19   3.266733D-19  -2.465324D-35

               Column   6     Column   7     Column   8     Column   9     Column  10
      14     0.000000D+00   0.000000D+00   0.000000D+00   0.000000D+00   1.745617D-18
      15     0.000000D+00   0.000000D+00   0.000000D+00   0.000000D+00  -3.425584D-19
      16     0.000000D+00   0.000000D+00   0.000000D+00   0.000000D+00   3.509776D-19
      17     0.000000D+00   0.000000D+00   0.000000D+00   0.000000D+00  -1.186554D-18
      18    -1.252818D-19  -5.242447D-36   6.512612D-20  -7.491344D-20   0.000000D+00
      19     6.512612D-20  -7.126726D-36  -1.104427D-18   9.533843D-19   0.000000D+00

               Column  11     Column  12     Column  13     Column  14     Column  15
      10     0.000000D+00   0.000000D+00   0.000000D+00   1.745617D-18  -3.425584D-19
      11     0.000000D+00   0.000000D+00   0.000000D+00  -3.425584D-19   2.075251D-19
      12     0.000000D+00   0.000000D+00   0.000000D+00   3.509776D-19  -1.399036D-19
      13     0.000000D+00   0.000000D+00   0.000000D+00  -1.186554D-18   3.073190D-19
      14    -3.425584D-19   3.509776D-19  -1.186554D-18   0.000000D+00   0.000000D+00
      15     2.075251D-19  -1.399036D-19   3.073190D-19   0.000000D+00   0.000000D+00
      16    -1.399036D-19   1.649539D-19  -3.370587D-19   0.000000D+00   0.000000D+00
      17     3.073190D-19  -3.370587D-19   1.670631D-18   0.000000D+00   0.000000D+00

               Column  16     Column  17     Column  18     Column  19     Column  20
       1     0.000000D+00   0.000000D+00  -3.677109D-20   7.298579D-19   0.000000D+00
       2     0.000000D+00   0.000000D+00  -1.383439D-19   1.604403D-18   0.000000D+00
       3     0.000000D+00   0.000000D+00  -1.592785D-19  -3.997637D-19   0.000000D+00
       4     0.000000D+00   0.000000D+00   2.039824D-20   3.266733D-19   0.000000D+00
       6     0.000000D+00   0.000000D+00  -1.252818D-19   6.512612D-20   0.000000D+00
       8     0.000000D+00   0.000000D+00   6.512612D-20  -1.104427D-18   0.000000D+00
       9     0.000000D+00   0.000000D+00  -7.491344D-20   9.533843D-19   0.000000D+00
      10     3.509776D-19  -1.186554D-18   0.000000D+00   0.000000D+00   0.000000D+00
      11    -1.399036D-19   3.073190D-19   0.000000D+00   0.000000D+00   0.000000D+00
      12     1.649539D-19  -3.370587D-19   0.000000D+00   0.000000D+00   0.000000D+00
      13    -3.370587D-19   1.670631D-18   0.000000D+00   0.000000D+00   0.000000D+00

               Column  21     Column  22     Column  23     Column  24     Column  25
      26     0.000000D+00   0.000000D+00   0.000000D+00   1.084972D-19  -5.640088D-20
      27     0.000000D+00   0.000000D+00   0.000000D+00  -5.640088D-20   9.564616D-19

               Column  26     Column  27
      24     1.084972D-19  -5.640088D-20
      25    -5.640088D-20   9.564616D-19
    ==== End of matrix output ====

 ------ Output from FSOMU ------

 Distribution CD    4    1     secondary  inactive 
 Reordered          4    1
 Symmetry           1    1

 Loop over symmetries

 IPSYM    1

 IPSYM    2

 IPSYM    3

 IPSYM    4

 IPSYM    5

 IPSYM    6

 IPSYM    7

 IPSYM    8


 Integral distribution     4    2

               Column   1     Column   2     Column   3     Column   4     Column   5
      18    -1.903293D-22   1.766718D-19   2.860154D-18  -3.265722D-19   1.012711D-34
      19     3.341597D-21   4.114992D-19   2.812499D-19  -1.448201D-20   4.639271D-36

               Column   6     Column   7     Column   8     Column   9     Column  10
      14     0.000000D+00   0.000000D+00   0.000000D+00   0.000000D+00   1.726174D-19
      15     0.000000D+00   0.000000D+00   0.000000D+00   0.000000D+00  -1.918038D-19
      16     0.000000D+00   0.000000D+00   0.000000D+00   0.000000D+00   1.529083D-19
      17     0.000000D+00   0.000000D+00   0.000000D+00   0.000000D+00   2.869871D-19
      18     1.932883D-18   8.600401D-35   2.417240D-19   9.932280D-19   0.000000D+00
      19     2.417240D-19   1.217288D-35  -2.442871D-19  -1.763348D-19   0.000000D+00

               Column  11     Column  12     Column  13     Column  14     Column  15
      10     0.000000D+00   0.000000D+00   0.000000D+00   1.726174D-19  -1.918038D-19
      11     0.000000D+00   0.000000D+00   0.000000D+00  -1.918038D-19  -1.927032D-18
      12     0.000000D+00   0.000000D+00   0.000000D+00   1.529083D-19   6.295523D-19
      13     0.000000D+00   0.000000D+00   0.000000D+00   2.869871D-19   6.166250D-19
      14    -1.918038D-19   1.529083D-19   2.869871D-19   0.000000D+00   0.000000D+00
      15    -1.927032D-18   6.295523D-19   6.166250D-19   0.000000D+00   0.000000D+00
      16     6.295523D-19  -1.018418D-18  -3.961831D-19   0.000000D+00   0.000000D+00
      17     6.166250D-19  -3.961831D-19  -5.828713D-20   0.000000D+00   0.000000D+00

               Column  16     Column  17     Column  18     Column  19     Column  20
       1     0.000000D+00   0.000000D+00  -1.903293D-22   3.341597D-21   0.000000D+00
       2     0.000000D+00   0.000000D+00   1.766718D-19   4.114992D-19   0.000000D+00
       3     0.000000D+00   0.000000D+00   2.860154D-18   2.812499D-19   0.000000D+00
       4     0.000000D+00   0.000000D+00  -3.265722D-19  -1.448201D-20   0.000000D+00
       6     0.000000D+00   0.000000D+00   1.932883D-18   2.417240D-19   0.000000D+00
       8     0.000000D+00   0.000000D+00   2.417240D-19  -2.442871D-19   0.000000D+00
       9     0.000000D+00   0.000000D+00   9.932280D-19  -1.763348D-19   0.000000D+00
      10     1.529083D-19   2.869871D-19   0.000000D+00   0.000000D+00   0.000000D+00
      11     6.295523D-19   6.166250D-19   0.000000D+00   0.000000D+00   0.000000D+00
      12    -1.018418D-18  -3.961831D-19   0.000000D+00   0.000000D+00   0.000000D+00
      13    -3.961831D-19  -5.828713D-20   0.000000D+00   0.000000D+00   0.000000D+00

               Column  21     Column  22     Column  23     Column  24     Column  25
      26     0.000000D+00   0.000000D+00   0.000000D+00  -1.673926D-18  -2.093391D-19
      27     0.000000D+00   0.000000D+00   0.000000D+00  -2.093391D-19   2.115588D-19

               Column  26     Column  27
      24    -1.673926D-18  -2.093391D-19
      25    -2.093391D-19   2.115588D-19
    ==== End of matrix output ====

 ------ Output from FSOMU ------

 Distribution CD    4    2     secondary  inactive 
 Reordered          4    2
 Symmetry           1    1

 Loop over symmetries

 IPSYM    1

 IPSYM    2

 IPSYM    3

 IPSYM    4

 IPSYM    5

 IPSYM    6

 IPSYM    7

 IPSYM    8


 Integral distribution     4    3

               Column   1     Column   2     Column   3     Column   4     Column   5
      18    -8.385392D-20  -3.636642D-18  -2.155768D-18   1.051949D-18  -1.160740D-35
      19     8.974348D-19   2.903489D-17  -4.890508D-18   4.024518D-18  -4.525348D-34

               Column   6     Column   7     Column   8     Column   9     Column  10
      14     0.000000D+00   0.000000D+00   0.000000D+00   0.000000D+00   1.666484D-17
      15     0.000000D+00   0.000000D+00   0.000000D+00   0.000000D+00  -8.517601D-19
      16     0.000000D+00   0.000000D+00   0.000000D+00   0.000000D+00   6.430070D-19
      17     0.000000D+00   0.000000D+00   0.000000D+00   0.000000D+00   7.641656D-18
      18    -1.657927D-18  -8.033623D-35   1.812142D-18   1.197713D-18   0.000000D+00
      19     1.812142D-18  -6.888892D-36  -2.051863D-17  -2.154099D-18   0.000000D+00

               Column  11     Column  12     Column  13     Column  14     Column  15
      10     0.000000D+00   0.000000D+00   0.000000D+00   1.666484D-17  -8.517601D-19
      11     0.000000D+00   0.000000D+00   0.000000D+00  -8.517601D-19   1.954384D-18
      12     0.000000D+00   0.000000D+00   0.000000D+00   6.430070D-19  -1.511527D-18
      13     0.000000D+00   0.000000D+00   0.000000D+00   7.641656D-18   3.895409D-19
      14    -8.517601D-19   6.430070D-19   7.641656D-18   0.000000D+00   0.000000D+00
      15     1.954384D-18  -1.511527D-18   3.895409D-19   0.000000D+00   0.000000D+00
      16    -1.511527D-18   1.719258D-18  -8.337418D-19   0.000000D+00   0.000000D+00
      17     3.895409D-19  -8.337418D-19   6.685999D-18   0.000000D+00   0.000000D+00

               Column  16     Column  17     Column  18     Column  19     Column  20
       1     0.000000D+00   0.000000D+00  -8.385392D-20   8.974348D-19   0.000000D+00
       2     0.000000D+00   0.000000D+00  -3.636642D-18   2.903489D-17   0.000000D+00
       3     0.000000D+00   0.000000D+00  -2.155768D-18  -4.890508D-18   0.000000D+00
       4     0.000000D+00   0.000000D+00   1.051949D-18   4.024518D-18   0.000000D+00
       6     0.000000D+00   0.000000D+00  -1.657927D-18   1.812142D-18   0.000000D+00
       8     0.000000D+00   0.000000D+00   1.812142D-18  -2.051863D-17   0.000000D+00
       9     0.000000D+00   0.000000D+00   1.197713D-18  -2.154099D-18   0.000000D+00
      10     6.430070D-19   7.641656D-18   0.000000D+00   0.000000D+00   0.000000D+00
      11    -1.511527D-18   3.895409D-19   0.000000D+00   0.000000D+00   0.000000D+00
      12     1.719258D-18  -8.337418D-19   0.000000D+00   0.000000D+00   0.000000D+00
      13    -8.337418D-19   6.685999D-18   0.000000D+00   0.000000D+00   0.000000D+00

               Column  21     Column  22     Column  23     Column  24     Column  25
      26     0.000000D+00   0.000000D+00   0.000000D+00   1.435807D-18  -1.569361D-18
      27     0.000000D+00   0.000000D+00   0.000000D+00  -1.569361D-18   1.776966D-17

               Column  26     Column  27
      24     1.435807D-18  -1.569361D-18
      25    -1.569361D-18   1.776966D-17
    ==== End of matrix output ====

 ------ Output from FSOMU ------

 Distribution CD    4    3     secondary  inactive 
 Reordered          4    3
 Symmetry           1    1

 Loop over symmetries

 IPSYM    1

 IPSYM    2

 IPSYM    3

 IPSYM    4

 IPSYM    5

 IPSYM    6

 IPSYM    7

 IPSYM    8


 Integral distribution     5    1

               Column   1     Column   2     Column   3     Column   4     Column   5
      18       0.00521691     0.01937133     0.00298569    -0.00079528    -0.00000000
      19      -0.10325347    -0.23958985     0.05645849    -0.04766601     0.00000000

               Column   6     Column   7     Column   8     Column   9     Column  10
      14       0.00000000     0.00000000     0.00000000     0.00000000    -0.25324020
      15       0.00000000     0.00000000     0.00000000     0.00000000     0.05017384
      16       0.00000000     0.00000000     0.00000000     0.00000000    -0.05104818
      17       0.00000000     0.00000000     0.00000000     0.00000000     0.16351160
      18       0.00460093     0.00000000    -0.01145748     0.00343241     0.00000000
      19      -0.01145748     0.00000000     0.16477724    -0.13446524     0.00000000

               Column  11     Column  12     Column  13     Column  14     Column  15
      10       0.00000000     0.00000000     0.00000000    -0.25324020     0.05017384
      11       0.00000000     0.00000000     0.00000000     0.05017384    -0.01635896
      12       0.00000000     0.00000000     0.00000000    -0.05104818     0.01575579
      13       0.00000000     0.00000000     0.00000000     0.16351160    -0.04772717
      14       0.05017384    -0.05104818     0.16351160     0.00000000     0.00000000
      15      -0.01635896     0.01575579    -0.04772717     0.00000000     0.00000000
      16       0.01575579    -0.01663699     0.05049690     0.00000000     0.00000000
      17      -0.04772717     0.05049690    -0.23622954     0.00000000     0.00000000

               Column  16     Column  17     Column  18     Column  19     Column  20
       1       0.00000000     0.00000000     0.00521691    -0.10325347     0.00000000
       2       0.00000000     0.00000000     0.01937133    -0.23958985     0.00000000
       3       0.00000000     0.00000000     0.00298569     0.05645849     0.00000000
       4       0.00000000     0.00000000    -0.00079528    -0.04766601     0.00000000
       6       0.00000000     0.00000000     0.00460093    -0.01145748     0.00000000
       8       0.00000000     0.00000000    -0.01145748     0.16477724     0.00000000
       9       0.00000000     0.00000000     0.00343241    -0.13446524     0.00000000
      10      -0.05104818     0.16351160     0.00000000     0.00000000     0.00000000
      11       0.01575579    -0.04772717     0.00000000     0.00000000     0.00000000
      12      -0.01663699     0.05049690     0.00000000     0.00000000     0.00000000
      13       0.05049690    -0.23622954     0.00000000     0.00000000     0.00000000

               Column  21     Column  22     Column  23     Column  24     Column  25
      26       0.00000000     0.00000000     0.00000000    -0.00398452     0.00992247
      27       0.00000000     0.00000000     0.00000000     0.00992247    -0.14270127

               Column  26     Column  27
      24      -0.00398452     0.00992247
      25       0.00992247    -0.14270127
    ==== End of matrix output ====

 ------ Output from FSOMU ------

 Distribution CD    5    1     secondary  inactive 
 Reordered          5    1
 Symmetry           1    1

 Loop over symmetries

 IPSYM    1

 IPSYM    2

 IPSYM    3

 IPSYM    4

 IPSYM    5

 IPSYM    6

 IPSYM    7

 IPSYM    8


 Integral distribution     5    2

               Column   1     Column   2     Column   3     Column   4     Column   5
      18       0.00064865     0.05714029     0.08900268    -0.04223410     0.00000000
      19      -0.00519446    -0.28177659     0.04181934    -0.03068419     0.00000000

               Column   6     Column   7     Column   8     Column   9     Column  10
      14       0.00000000     0.00000000     0.00000000     0.00000000    -0.17374533
      15       0.00000000     0.00000000     0.00000000     0.00000000    -0.01185403
      16       0.00000000     0.00000000     0.00000000     0.00000000     0.01566626
      17       0.00000000     0.00000000     0.00000000     0.00000000    -0.11945459
      18       0.05738407     0.00000000    -0.01694561    -0.01287876     0.00000000
      19      -0.01694561    -0.00000000     0.19531623     0.07467902     0.00000000

               Column  11     Column  12     Column  13     Column  14     Column  15
      10       0.00000000     0.00000000     0.00000000    -0.17374533    -0.01185403
      11       0.00000000     0.00000000     0.00000000    -0.01185403    -0.06307492
      12       0.00000000     0.00000000     0.00000000     0.01566626     0.04346868
      13       0.00000000     0.00000000     0.00000000    -0.11945459    -0.00367975
      14      -0.01185403     0.01566626    -0.11945459     0.00000000     0.00000000
      15      -0.06307492     0.04346868    -0.00367975     0.00000000     0.00000000
      16       0.04346868    -0.05016197     0.01443746     0.00000000     0.00000000
      17      -0.00367975     0.01443746    -0.12429599     0.00000000     0.00000000

               Column  16     Column  17     Column  18     Column  19     Column  20
       1       0.00000000     0.00000000     0.00064865    -0.00519446     0.00000000
       2       0.00000000     0.00000000     0.05714029    -0.28177659     0.00000000
       3       0.00000000     0.00000000     0.08900268     0.04181934     0.00000000
       4       0.00000000     0.00000000    -0.04223410    -0.03068419     0.00000000
       6       0.00000000     0.00000000     0.05738407    -0.01694561     0.00000000
       8       0.00000000     0.00000000    -0.01694561     0.19531623     0.00000000
       9       0.00000000     0.00000000    -0.01287876     0.07467902     0.00000000
      10       0.01566626    -0.11945459     0.00000000     0.00000000     0.00000000
      11       0.04346868    -0.00367975     0.00000000     0.00000000     0.00000000
      12      -0.05016197     0.01443746     0.00000000     0.00000000     0.00000000
      13       0.01443746    -0.12429599     0.00000000     0.00000000     0.00000000

               Column  21     Column  22     Column  23     Column  24     Column  25
      26       0.00000000     0.00000000     0.00000000    -0.04969606     0.01467533
      27       0.00000000     0.00000000     0.00000000     0.01467533    -0.16914882

               Column  26     Column  27
      24      -0.04969606     0.01467533
      25       0.01467533    -0.16914882
    ==== End of matrix output ====

 ------ Output from FSOMU ------

 Distribution CD    5    2     secondary  inactive 
 Reordered          5    2
 Symmetry           1    1

 Loop over symmetries

 IPSYM    1

 IPSYM    2

 IPSYM    3

 IPSYM    4

 IPSYM    5

 IPSYM    6

 IPSYM    7

 IPSYM    8


 Integral distribution     5    3

               Column   1     Column   2     Column   3     Column   4     Column   5
      18      -0.00054433    -0.01538286     0.04293085     0.00866191     0.00000000
      19       0.00787078     0.12942806    -0.01361755     0.01604242    -0.00000000

               Column   6     Column   7     Column   8     Column   9     Column  10
      14       0.00000000     0.00000000     0.00000000     0.00000000     0.08118089
      15       0.00000000     0.00000000     0.00000000     0.00000000    -0.00558337
      16       0.00000000     0.00000000     0.00000000     0.00000000     0.00360490
      17       0.00000000     0.00000000     0.00000000     0.00000000     0.03556244
      18       0.02955807     0.00000000     0.01270663     0.02589374     0.00000000
      19       0.01270663     0.00000000    -0.08947983    -0.01571259     0.00000000

               Column  11     Column  12     Column  13     Column  14     Column  15
      10       0.00000000     0.00000000     0.00000000     0.08118089    -0.00558337
      11       0.00000000     0.00000000     0.00000000    -0.00558337    -0.02798870
      12       0.00000000     0.00000000     0.00000000     0.00360490    -0.00217660
      13       0.00000000     0.00000000     0.00000000     0.03556244     0.01711060
      14      -0.00558337     0.00360490     0.03556244     0.00000000     0.00000000
      15      -0.02798870    -0.00217660     0.01711060     0.00000000     0.00000000
      16      -0.00217660    -0.01111894    -0.01567917     0.00000000     0.00000000
      17       0.01711060    -0.01567917     0.04721998     0.00000000     0.00000000

               Column  16     Column  17     Column  18     Column  19     Column  20
       1       0.00000000     0.00000000    -0.00054433     0.00787078     0.00000000
       2       0.00000000     0.00000000    -0.01538286     0.12942806     0.00000000
       3       0.00000000     0.00000000     0.04293085    -0.01361755     0.00000000
       4       0.00000000     0.00000000     0.00866191     0.01604242     0.00000000
       6       0.00000000     0.00000000     0.02955807     0.01270663     0.00000000
       8       0.00000000     0.00000000     0.01270663    -0.08947983     0.00000000
       9       0.00000000     0.00000000     0.02589374    -0.01571259     0.00000000
      10       0.00360490     0.03556244     0.00000000     0.00000000     0.00000000
      11      -0.00217660     0.01711060     0.00000000     0.00000000     0.00000000
      12      -0.01111894    -0.01567917     0.00000000     0.00000000     0.00000000
      13      -0.01567917     0.04721998     0.00000000     0.00000000     0.00000000

               Column  21     Column  22     Column  23     Column  24     Column  25
      26       0.00000000     0.00000000     0.00000000    -0.02559804    -0.01100426
      27       0.00000000     0.00000000     0.00000000    -0.01100426     0.07749181

               Column  26     Column  27
      24      -0.02559804    -0.01100426
      25      -0.01100426     0.07749181
    ==== End of matrix output ====

 ------ Output from FSOMU ------

 Distribution CD    5    3     secondary  inactive 
 Reordered          5    3
 Symmetry           1    1

 Loop over symmetries

 IPSYM    1

 IPSYM    2

 IPSYM    3

 IPSYM    4

 IPSYM    5

 IPSYM    6

 IPSYM    7

 IPSYM    8


 Integral distribution     6    1

               Column   1     Column   2     Column   3     Column   4     Column   5
      18     3.474145D-19   1.053239D-18   3.956384D-20   2.932116D-20  -8.421729D-36
      19    -6.936041D-18  -1.403965D-17   3.420841D-18  -2.895683D-18   2.101903D-34

               Column   6     Column   7     Column   8     Column   9     Column  10
      14     0.000000D+00   0.000000D+00   0.000000D+00   0.000000D+00  -1.591611D-17
      15     0.000000D+00   0.000000D+00   0.000000D+00   0.000000D+00   3.319276D-18
      16     0.000000D+00   0.000000D+00   0.000000D+00   0.000000D+00  -3.390826D-18
      17     0.000000D+00   0.000000D+00   0.000000D+00   0.000000D+00   1.156226D-17
      18     2.129384D-19   4.910016D-36  -6.461425D-19   2.912433D-19   0.000000D+00
      19    -6.461425D-19   6.126561D-35   9.623899D-18  -9.038130D-18   0.000000D+00

               Column  11     Column  12     Column  13     Column  14     Column  15
      10     0.000000D+00   0.000000D+00   0.000000D+00  -1.591611D-17   3.319276D-18
      11     0.000000D+00   0.000000D+00   0.000000D+00   3.319276D-18  -9.591672D-19
      12     0.000000D+00   0.000000D+00   0.000000D+00  -3.390826D-18   9.475392D-19
      13     0.000000D+00   0.000000D+00   0.000000D+00   1.156226D-17  -3.214854D-18
      14     3.319276D-18  -3.390826D-18   1.156226D-17   0.000000D+00   0.000000D+00
      15    -9.591672D-19   9.475392D-19  -3.214854D-18   0.000000D+00   0.000000D+00
      16     9.475392D-19  -9.978485D-19   3.371387D-18   0.000000D+00   0.000000D+00
      17    -3.214854D-18   3.371387D-18  -1.566031D-17   0.000000D+00   0.000000D+00

               Column  16     Column  17     Column  18     Column  19     Column  20
       1     0.000000D+00   0.000000D+00   3.474145D-19  -6.936041D-18   0.000000D+00
       2     0.000000D+00   0.000000D+00   1.053239D-18  -1.403965D-17   0.000000D+00
       3     0.000000D+00   0.000000D+00   3.956384D-20   3.420841D-18   0.000000D+00
       4     0.000000D+00   0.000000D+00   2.932116D-20  -2.895683D-18   0.000000D+00
       6     0.000000D+00   0.000000D+00   2.129384D-19  -6.461425D-19   0.000000D+00
       8     0.000000D+00   0.000000D+00  -6.461425D-19   9.623899D-18   0.000000D+00
       9     0.000000D+00   0.000000D+00   2.912433D-19  -9.038130D-18   0.000000D+00
      10    -3.390826D-18   1.156226D-17   0.000000D+00   0.000000D+00   0.000000D+00
      11     9.475392D-19  -3.214854D-18   0.000000D+00   0.000000D+00   0.000000D+00
      12    -9.978485D-19   3.371387D-18   0.000000D+00   0.000000D+00   0.000000D+00
      13     3.371387D-18  -1.566031D-17   0.000000D+00   0.000000D+00   0.000000D+00

               Column  21     Column  22     Column  23     Column  24     Column  25
      26     0.000000D+00   0.000000D+00   0.000000D+00  -1.327459D-19   5.644868D-19
      27     0.000000D+00   0.000000D+00   0.000000D+00   5.644868D-19  -8.334276D-18

               Column  26     Column  27
      24    -1.327459D-19   5.644868D-19
      25     5.644868D-19  -8.334276D-18
    ==== End of matrix output ====

 ------ Output from FSOMU ------

 Distribution CD    6    1     secondary  inactive 
 Reordered          6    1
 Symmetry           1    1

 Loop over symmetries

 IPSYM    1

 IPSYM    2

 IPSYM    3

 IPSYM    4

 IPSYM    5

 IPSYM    6

 IPSYM    7

 IPSYM    8


 Integral distribution     6    2

               Column   1     Column   2     Column   3     Column   4     Column   5
      18    -8.592517D-20  -1.286695D-18  -3.053607D-18   1.323352D-18  -1.002977D-34
      19     1.716109D-18   3.451988D-18  -5.196401D-19   2.637136D-19  -6.191123D-35

               Column   6     Column   7     Column   8     Column   9     Column  10
      14     0.000000D+00   0.000000D+00   0.000000D+00   0.000000D+00   4.740916D-18
      15     0.000000D+00   0.000000D+00   0.000000D+00   0.000000D+00   7.122941D-20
      16     0.000000D+00   0.000000D+00   0.000000D+00   0.000000D+00  -1.431184D-19
      17     0.000000D+00   0.000000D+00   0.000000D+00   0.000000D+00  -9.173404D-19
      18    -2.416729D-18  -9.764329D-35   9.969957D-20   1.169015D-19   0.000000D+00
      19     9.969957D-20  -2.185110D-36  -2.146227D-18  -3.406700D-19   0.000000D+00

               Column  11     Column  12     Column  13     Column  14     Column  15
      10     0.000000D+00   0.000000D+00   0.000000D+00   4.740916D-18   7.122941D-20
      11     0.000000D+00   0.000000D+00   0.000000D+00   7.122941D-20   2.248097D-18
      12     0.000000D+00   0.000000D+00   0.000000D+00  -1.431184D-19  -1.461046D-18
      13     0.000000D+00   0.000000D+00   0.000000D+00  -9.173404D-19   9.587941D-19
      14     7.122941D-20  -1.431184D-19  -9.173404D-19   0.000000D+00   0.000000D+00
      15     2.248097D-18  -1.461046D-18   9.587941D-19   0.000000D+00   0.000000D+00
      16    -1.461046D-18   1.811679D-18  -1.292011D-18   0.000000D+00   0.000000D+00
      17     9.587941D-19  -1.292011D-18   7.280096D-18   0.000000D+00   0.000000D+00

               Column  16     Column  17     Column  18     Column  19     Column  20
       1     0.000000D+00   0.000000D+00  -8.592517D-20   1.716109D-18   0.000000D+00
       2     0.000000D+00   0.000000D+00  -1.286695D-18   3.451988D-18   0.000000D+00
       3     0.000000D+00   0.000000D+00  -3.053607D-18  -5.196401D-19   0.000000D+00
       4     0.000000D+00   0.000000D+00   1.323352D-18   2.637136D-19   0.000000D+00
       6     0.000000D+00   0.000000D+00  -2.416729D-18   9.969957D-20   0.000000D+00
       8     0.000000D+00   0.000000D+00   9.969957D-20  -2.146227D-18   0.000000D+00
       9     0.000000D+00   0.000000D+00   1.169015D-19  -3.406700D-19   0.000000D+00
      10    -1.431184D-19  -9.173404D-19   0.000000D+00   0.000000D+00   0.000000D+00
[...]

               Column   6     Column   7     Column   8     Column   9     Column  10
       1       0.00000000     0.00000000     0.00000000     0.00000000    -0.04330323
       2       0.00000000     0.00000000     0.00000000     0.00000000    -0.09660515
       3       0.00000000     0.00000000     0.00000000     0.00000000     0.02552528
       4       0.00000000     0.00000000     0.00000000     0.00000000    -0.02054456
       5       0.00000000     0.00000000     0.00000000     0.00000000     0.00275749
       6       0.00000000     0.00000000     0.00000000     0.00000000    -0.00083142
       7       0.00000000     0.00000000     0.00000000     0.00000000    -0.07511399
       8       0.00000000     0.00000000     0.00000000     0.00000000     0.02217309
       9       0.00000000     0.00000000     0.00000000     0.00000000    -0.03776640
      10      -0.00083142    -0.07511399     0.02217309    -0.03776640     0.00000000
      11       0.01010670     0.00777314    -0.00270275     0.02706583     0.00000000
      12      -0.00196459    -0.01064256     0.00358825    -0.02677826     0.00000000
      13      -0.00291124     0.00976913    -0.00503664     0.05787836     0.00000000

               Column  11     Column  12     Column  13     Column  14     Column  15
       1       0.01056499    -0.01087505     0.04837214     0.00000000     0.00000000
       2       0.01865369    -0.01782176     0.00757684     0.00000000     0.00000000
       3       0.04756997    -0.00960351    -0.02540663     0.00000000     0.00000000
       4       0.00970656     0.02794175     0.01461021     0.00000000     0.00000000
       5      -0.03834945     0.01078314     0.01326497     0.00000000     0.00000000
       6       0.01010670    -0.00196459    -0.00291124     0.00000000     0.00000000
       7       0.00777314    -0.01064256     0.00976913     0.00000000     0.00000000
       8      -0.00270275     0.00358825    -0.00503664     0.00000000     0.00000000
       9       0.02706583    -0.02677826     0.05787836     0.00000000     0.00000000
      18       0.00000000     0.00000000     0.00000000     0.00275749    -0.03834945
      19       0.00000000     0.00000000     0.00000000    -0.07511399     0.00777314

               Column  16     Column  17     Column  18     Column  19     Column  20
      14       0.00000000     0.00000000     0.00275749    -0.07511399     0.00000000
      15       0.00000000     0.00000000    -0.03834945     0.00777314     0.00000000
      16       0.00000000     0.00000000     0.01078314    -0.01064256     0.00000000
      17       0.00000000     0.00000000     0.01326497     0.00976913     0.00000000
      18       0.01078314     0.01326497     0.00000000     0.00000000     0.00000000
      19      -0.01064256     0.00976913     0.00000000     0.00000000     0.00000000
      24       0.00000000     0.00000000     0.00000000     0.00000000     0.00407491
      25       0.00000000     0.00000000     0.00000000     0.00000000    -0.11182306

               Column  21     Column  22     Column  23     Column  24     Column  25
      20       0.00000000     0.00000000     0.00000000     0.00407491    -0.11182306
      21       0.00000000     0.00000000     0.00000000    -0.05919358     0.01086498
      22       0.00000000     0.00000000     0.00000000     0.01816350    -0.01507009
      23       0.00000000     0.00000000     0.00000000     0.02148753     0.01081455
      24      -0.05919358     0.01816350     0.02148753     0.00000000     0.00000000
      25       0.01086498    -0.01507009     0.01081455     0.00000000     0.00000000

               Column  26     Column  27
    ==== End of matrix output ====

 ------ Output from FSOMU ------

 Distribution CD   26   21     secondary  inactive 
 Reordered         26   21
 Symmetry           7    5

 Loop over symmetries

 IPSYM    1

 IPSYM    2

 IPSYM    3

 IPSYM    4

 IPSYM    5

 IPSYM    6

 IPSYM    7

 IPSYM    8


 Integral distribution    27   20

               Column   1     Column   2     Column   3     Column   4     Column   5
      10      -2.85629162    -6.42402900     1.03871230    -0.86545317     0.53819196
      11       0.69827916     0.71565628    -0.96506244     0.50012984     0.45668377
      12      -0.71873485    -0.68178380     0.73585071    -0.73491530    -0.26399080
      13       3.22534290     0.22575062    -0.67301378     0.68563732     0.09308439

               Column   6     Column   7     Column   8     Column   9     Column  10
       1       0.00000000     0.00000000     0.00000000     0.00000000    -2.85629162
       2       0.00000000     0.00000000     0.00000000     0.00000000    -6.42402900
       3       0.00000000     0.00000000     0.00000000     0.00000000     1.03871230
       4       0.00000000     0.00000000     0.00000000     0.00000000    -0.86545317
       5       0.00000000     0.00000000     0.00000000     0.00000000     0.53819196
       6       0.00000000     0.00000000     0.00000000     0.00000000    -0.21533739
       7       0.00000000     0.00000000     0.00000000     0.00000000    -4.85246493
       8       0.00000000     0.00000000     0.00000000     0.00000000     1.70118396
       9       0.00000000     0.00000000     0.00000000     0.00000000    -2.22926219
      10      -0.21533739    -4.85246493     1.70118396    -2.22926219     0.00000000
      11      -0.25301386     0.76843205    -0.26770120     0.90963493     0.00000000
      12       0.14356199    -0.73416440     0.24916601    -1.03781096     0.00000000
      13      -0.02952652     0.40367466    -0.10006689     4.76255740     0.00000000

               Column  11     Column  12     Column  13     Column  14     Column  15
       1       0.69827916    -0.71873485     3.22534290     0.00000000     0.00000000
       2       0.71565628    -0.68178380     0.22575062     0.00000000     0.00000000
       3      -0.96506244     0.73585071    -0.67301378     0.00000000     0.00000000
       4       0.50012984    -0.73491530     0.68563732     0.00000000     0.00000000
       5       0.45668377    -0.26399080     0.09308439     0.00000000     0.00000000
       6      -0.25301386     0.14356199    -0.02952652     0.00000000     0.00000000
       7       0.76843205    -0.73416440     0.40367466     0.00000000     0.00000000
       8      -0.26770120     0.24916601    -0.10006689     0.00000000     0.00000000
       9       0.90963493    -1.03781096     4.76255740     0.00000000     0.00000000
      18       0.00000000     0.00000000     0.00000000     0.53819196     0.45668377
      19       0.00000000     0.00000000     0.00000000    -4.85246493     0.76843205

               Column  16     Column  17     Column  18     Column  19     Column  20
      14       0.00000000     0.00000000     0.53819196    -4.85246493     0.00000000
      15       0.00000000     0.00000000     0.45668377     0.76843205     0.00000000
      16       0.00000000     0.00000000    -0.26399080    -0.73416440     0.00000000
      17       0.00000000     0.00000000     0.09308439     0.40367466     0.00000000
      18      -0.26399080     0.09308439     0.00000000     0.00000000     0.00000000
      19      -0.73416440     0.40367466     0.00000000     0.00000000     0.00000000
      24       0.00000000     0.00000000     0.00000000     0.00000000     0.70340862
      25       0.00000000     0.00000000     0.00000000     0.00000000    -6.75839282

               Column  21     Column  22     Column  23     Column  24     Column  25
      20       0.00000000     0.00000000     0.00000000     0.70340862    -6.75839282
      21       0.00000000     0.00000000     0.00000000     0.47513469     1.07319202
      22       0.00000000     0.00000000     0.00000000    -0.27932493    -1.03676062
      23       0.00000000     0.00000000     0.00000000     0.13502735     0.63402838
      24       0.47513469    -0.27932493     0.13502735     0.00000000     0.00000000
      25       1.07319202    -1.03676062     0.63402838     0.00000000     0.00000000

               Column  26     Column  27
    ==== End of matrix output ====

 ------ Output from FSOMU ------

 Distribution CD   27   20     secondary  inactive 
 Reordered         27   20
 Symmetry           7    5

 Loop over symmetries

 IPSYM    1

 IPSYM    2

 IPSYM    3

 IPSYM    4

 IPSYM    5

 IPSYM    6

 IPSYM    7

 IPSYM    8


 Integral distribution    27   21

               Column   1     Column   2     Column   3     Column   4     Column   5
      10       0.80291940     1.79427121    -0.29207079     0.24359835    -0.14986788
      11      -0.19633342    -0.20163305     0.27335168    -0.13836881    -0.13012360
      12       0.20208933     0.19251399    -0.20588360     0.20739055     0.07384469
      13      -0.90709877    -0.07359163     0.18708247    -0.19115926    -0.02394777

               Column   6     Column   7     Column   8     Column   9     Column  10
       1       0.00000000     0.00000000     0.00000000     0.00000000     0.80291940
       2       0.00000000     0.00000000     0.00000000     0.00000000     1.79427121
       3       0.00000000     0.00000000     0.00000000     0.00000000    -0.29207079
       4       0.00000000     0.00000000     0.00000000     0.00000000     0.24359835
       5       0.00000000     0.00000000     0.00000000     0.00000000    -0.14986788
       6       0.00000000     0.00000000     0.00000000     0.00000000     0.06012267
       7       0.00000000     0.00000000     0.00000000     0.00000000     1.35589254
       8       0.00000000     0.00000000     0.00000000     0.00000000    -0.47548990
       9       0.00000000     0.00000000     0.00000000     0.00000000     0.63444025
      10       0.06012267     1.35589254    -0.47548990     0.63444025     0.00000000
      11       0.07109986    -0.21590459     0.07493606    -0.25373030     0.00000000
      12      -0.03996332     0.20620539    -0.06970630     0.28938229     0.00000000
      13       0.00806113    -0.11888386     0.02853979    -1.33067969     0.00000000

               Column  11     Column  12     Column  13     Column  14     Column  15
       1      -0.19633342     0.20208933    -0.90709877     0.00000000     0.00000000
       2      -0.20163305     0.19251399    -0.07359163     0.00000000     0.00000000
       3       0.27335168    -0.20588360     0.18708247     0.00000000     0.00000000
       4      -0.13836881     0.20739055    -0.19115926     0.00000000     0.00000000
       5      -0.13012360     0.07384469    -0.02394777     0.00000000     0.00000000
       6       0.07109986    -0.03996332     0.00806113     0.00000000     0.00000000
       7      -0.21590459     0.20620539    -0.11888386     0.00000000     0.00000000
       8       0.07493606    -0.06970630     0.02853979     0.00000000     0.00000000
       9      -0.25373030     0.28938229    -1.33067969     0.00000000     0.00000000
      18       0.00000000     0.00000000     0.00000000    -0.14986788    -0.13012360
      19       0.00000000     0.00000000     0.00000000     1.35589254    -0.21590459

               Column  16     Column  17     Column  18     Column  19     Column  20
      14       0.00000000     0.00000000    -0.14986788     1.35589254     0.00000000
      15       0.00000000     0.00000000    -0.13012360    -0.21590459     0.00000000
      16       0.00000000     0.00000000     0.07384469     0.20620539     0.00000000
      17       0.00000000     0.00000000    -0.02394777    -0.11888386     0.00000000
      18       0.07384469    -0.02394777     0.00000000     0.00000000     0.00000000
      19       0.20620539    -0.11888386     0.00000000     0.00000000     0.00000000
      24       0.00000000     0.00000000     0.00000000     0.00000000    -0.19560024
      25       0.00000000     0.00000000     0.00000000     0.00000000     1.88821243

               Column  21     Column  22     Column  23     Column  24     Column  25
      20       0.00000000     0.00000000     0.00000000    -0.19560024     1.88821243
      21       0.00000000     0.00000000     0.00000000    -0.13709862    -0.30201612
      22       0.00000000     0.00000000     0.00000000     0.07847088     0.29167594
      23       0.00000000     0.00000000     0.00000000    -0.03393325    -0.18833537
      24      -0.13709862     0.07847088    -0.03393325     0.00000000     0.00000000
      25      -0.30201612     0.29167594    -0.18833537     0.00000000     0.00000000

               Column  26     Column  27
    ==== End of matrix output ====

 ------ Output from FSOMU ------

 Distribution CD   27   21     secondary  inactive 
 Reordered         27   21
 Symmetry           7    5

 Loop over symmetries

 IPSYM    1

 IPSYM    2

 IPSYM    3

 IPSYM    4

 IPSYM    5

 IPSYM    6

 IPSYM    7

 IPSYM    8


 Final Inactive Fock matrix

               Column   1     Column   2     Column   3     Column   4     Column   5

               Column   6     Column   7     Column   8     Column   9     Column  10
      14       0.00000000     0.00000000     0.00000000     0.00000000   292.98869505
      15       0.00000000     0.00000000     0.00000000     0.00000000   -64.57708670
      16       0.00000000     0.00000000     0.00000000     0.00000000    65.45599356
      17       0.00000000     0.00000000     0.00000000     0.00000000  -294.07482223

               Column  11     Column  12     Column  13     Column  14     Column  15
      10       0.00000000     0.00000000     0.00000000  -292.98869505    64.57708670
      11       0.00000000     0.00000000     0.00000000    64.57708670   -21.29974013
      12       0.00000000     0.00000000     0.00000000   -65.45599356    20.36997377
      13       0.00000000     0.00000000     0.00000000   294.07482223   -85.20692382
      14     -64.57708670    65.45599356  -294.07482223     0.00000000     0.00000000
      15      21.29974013   -20.36997377    85.20692382     0.00000000     0.00000000
      16     -20.36997377     0.00000000     0.00000000     0.00000000     0.00000000
      17      85.20692382     0.00000000     0.00000000     0.00000000     0.00000000

               Column  16     Column  17     Column  18     Column  19     Column  20
      10     -65.45599356   294.07482223     0.00000000     0.00000000     0.00000000
      11      20.36997377   -85.20692382     0.00000000     0.00000000     0.00000000

               Column  21     Column  22     Column  23     Column  24     Column  25

               Column  26     Column  27
    ==== End of matrix output ====

 Active integral distribution (**  1  1)

     Zero matrix.
    ==== End of matrix output ====

 Active integral distribution (**  2  1)

               Column   1     Column   2
       1       0.08564919
       2       0.00000000     0.08564919
    ==== End of matrix output ====

 Active integral distribution (**  2  2)

     Zero matrix.
    ==== End of matrix output ====

 ------ Output from HSOSIG ------

 Inactive Fock matrix

               Column   1     Column   2     Column   3     Column   4     Column   5

               Column   6     Column   7     Column   8     Column   9     Column  10
      14       0.00000000     0.00000000     0.00000000     0.00000000   292.98869505
      15       0.00000000     0.00000000     0.00000000     0.00000000   -64.57708670
      16       0.00000000     0.00000000     0.00000000     0.00000000    65.45599356
      17       0.00000000     0.00000000     0.00000000     0.00000000  -294.07482223

               Column  11     Column  12     Column  13     Column  14     Column  15
      10       0.00000000     0.00000000     0.00000000  -292.98869505    64.57708670
      11       0.00000000     0.00000000     0.00000000    64.57708670   -21.29974013
      12       0.00000000     0.00000000     0.00000000   -65.45599356    20.36997377
      13       0.00000000     0.00000000     0.00000000   294.07482223   -85.20692382
      14     -64.57708670    65.45599356  -294.07482223     0.00000000     0.00000000
      15      21.29974013   -20.36997377    85.20692382     0.00000000     0.00000000
      16     -20.36997377     0.00000000     0.00000000     0.00000000     0.00000000
      17      85.20692382     0.00000000     0.00000000     0.00000000     0.00000000

               Column  16     Column  17     Column  18     Column  19     Column  20
      10     -65.45599356   294.07482223     0.00000000     0.00000000     0.00000000
      11      20.36997377   -85.20692382     0.00000000     0.00000000     0.00000000

               Column  21     Column  22     Column  23     Column  24     Column  25

               Column  26     Column  27
    ==== End of matrix output ====

 Active part of inactive Fock matrix

               Column   1     Column   2
       1       0.00000000    21.29974013
       2     -21.29974013     0.00000000
    ==== End of matrix output ====

 CSF part of spin-orbit property vector: Z part

               Column   1
       1      21.12844176
    ==== End of matrix output ====


 Configuration property vector: 

               Z part         Y part

               Column   1     Column   2
       1      21.12844176    21.12844176
    ==== End of matrix output ====


 Orbital property vector: 

               Z part         Y part
    ==== End of matrix output ====

@ Transition operator type:    Z2SPNORB
 Operator symmetry:   4; triplet =    F
@ STATE NO:    1 *TRANSITION MOMENT:  2.81279530E-04 *ENERGY(eV):  3.62528463E-13

 SPIN-ORBIT COUPLING CONSTANT (Z2SPNORB):  0.28127953E-03 (AU)
                                            61.733721     (CM-1)


 **************************************************************************************
 *** @ Excit. operator sym 4 & ref. state sym 2 => excited state symmetry 3  ( B2u) ***
 **************************************************************************************



 @ Excited state no:    1 in symmetry 3  ( B2u)
 ----------------------------------------------

@ Excitation energy :  1.33226763E-14 au
@                     3.62528463E-13 eV;  2.92398944E-09 cm-1;  3.49786812E-11 kJ / mol

@ Total energy :      -459.46684     au

@ Operator type:    Z2SPNORB
@ Spin-orbit coupling constant (Z2SPNORB) :   61.733721     cm-1
                                            2.81279530E-04 au

 Eigenvector for state no.  1

     Orbital operator symmetry = 1
     >> NO ELEMENTS <<

      Index(conf)                         Z operator          Y operator
      ----------                      --------------      --------------
           1                            1.0000000000        0.0000000000


  Printout of coefficients in interval   0.3162E+00 to  0.1000E+01
  ==============================================================

 Coefficient of determinant         1 is      1.00000000  1.00000000E+00
 alpha-string:  1  2
  beta-string:  1


  Printout of coefficients in interval   0.1000E+00 to  0.3162E+00
  ==============================================================
   ( no coefficients )

 Norm of printed part of CI vector ..      1.00000000

  Magnitude of CI coefficients
  ============================

  ( Ranges are relative to norm of vector :  1.00E+00 )

  10- 1 to 10- 0         1    0.10000000E+01    0.10000000E+01
  Number of coefficients less than 10^-11 times norm is             0


 Time used in polarization propagator calculation is      0.04 CPU seconds for symmetry 4

  Total CPU  time used in RESPONSE:   0.04 seconds
  Total wall time used in RESPONSE:   0.04 seconds


                   .-------------------------------------------.
                   | End of Dynamic Property Section (RESPONS) |
                   `-------------------------------------------'

  Total CPU  time used in DALTON:   0.10 seconds
  Total wall time used in DALTON:   0.10 seconds

 
     Date and time (Linux)  : Tue May 31 11:27:00 2016
     Host name              : olav-ThinkPad-W540                      
