

     ************************************************************************
     *************** Dalton - An Electronic Structure Program ***************
     ************************************************************************

    This is output from DALTON release Dalton2017.alpha (2017)
         ( Web site: http://daltonprogram.org )

   ----------------------------------------------------------------------------

    NOTE:
     
    Dalton is an experimental code for the evaluation of molecular
    properties using (MC)SCF, DFT, CI, and CC wave functions.
    The authors accept no responsibility for the performance of
    the code or for the correctness of the results.
     
    The code (in whole or part) is provided under a licence and
    is not to be reproduced for further distribution without
    the written permission of the authors or their representatives.
     
    See the home page "http://daltonprogram.org" for further information.
     
    If results obtained with this code are published,
    the appropriate citations would be both of:
     
       K. Aidas, C. Angeli, K. L. Bak, V. Bakken, R. Bast,
       L. Boman, O. Christiansen, R. Cimiraglia, S. Coriani,
       P. Dahle, E. K. Dalskov, U. Ekstroem,
       T. Enevoldsen, J. J. Eriksen, P. Ettenhuber, B. Fernandez,
       L. Ferrighi, H. Fliegl, L. Frediani, K. Hald, A. Halkier,
       C. Haettig, H. Heiberg, T. Helgaker, A. C. Hennum,
       H. Hettema, E. Hjertenaes, S. Hoest, I.-M. Hoeyvik,
       M. F. Iozzi, B. Jansik, H. J. Aa. Jensen, D. Jonsson,
       P. Joergensen, J. Kauczor, S. Kirpekar,
       T. Kjaergaard, W. Klopper, S. Knecht, R. Kobayashi, H. Koch,
       J. Kongsted, A. Krapp, K. Kristensen, A. Ligabue,
       O. B. Lutnaes, J. I. Melo, K. V. Mikkelsen, R. H. Myhre,
       C. Neiss, C. B. Nielsen, P. Norman, J. Olsen,
       J. M. H. Olsen, A. Osted, M. J. Packer, F. Pawlowski,
       T. B. Pedersen, P. F. Provasi, S. Reine, Z. Rinkevicius,
       T. A. Ruden, K. Ruud, V. Rybkin, P. Salek, C. C. M. Samson,
       A. Sanchez de Meras, T. Saue, S. P. A. Sauer,
       B. Schimmelpfennig, K. Sneskov, A. H. Steindal,
       K. O. Sylvester-Hvid, P. R. Taylor, A. M. Teale,
       E. I. Tellgren, D. P. Tew, A. J. Thorvaldsen, L. Thoegersen,
       O. Vahtras, M. A. Watson, D. J. D. Wilson, M. Ziolkowski
       and H. Agren,
       "The Dalton quantum chemistry program system",
       WIREs Comput. Mol. Sci. 2014, 4:269–284 (doi: 10.1002/wcms.1172)
     
    and
     
       Dalton, a Molecular Electronic Structure Program,
       Release Dalton2017.alpha (2017), see http://daltonprogram.org
   ----------------------------------------------------------------------------

    Authors in alphabetical order (major contribution(s) in parenthesis):

  Kestutis Aidas,           Vilnius University,           Lithuania   (QM/MM)
  Celestino Angeli,         University of Ferrara,        Italy       (NEVPT2)
  Keld L. Bak,              UNI-C,                        Denmark     (AOSOPPA, non-adiabatic coupling, magnetic properties)
  Vebjoern Bakken,          University of Oslo,           Norway      (DALTON; geometry optimizer, symmetry detection)
  Radovan Bast,             UiT The Arctic U. of Norway,  Norway      (DALTON installation and execution frameworks)
  Pablo Baudin,             University of Valencia,       Spain       (Cholesky excitation energies)
  Linus Boman,              NTNU,                         Norway      (Cholesky decomposition and subsystems)
  Ove Christiansen,         Aarhus University,            Denmark     (CC module)
  Renzo Cimiraglia,         University of Ferrara,        Italy       (NEVPT2)
  Sonia Coriani,            University of Trieste,        Italy       (CC module, MCD in RESPONS)
  Janusz Cukras,            University of Trieste,        Italy       (MChD in RESPONS)
  Paal Dahle,               University of Oslo,           Norway      (Parallelization)
  Erik K. Dalskov,          UNI-C,                        Denmark     (SOPPA)
  Thomas Enevoldsen,        Univ. of Southern Denmark,    Denmark     (SOPPA)
  Janus J. Eriksen,         Aarhus University,            Denmark     (Polarizable embedding model, TDA)
  Rasmus Faber,             University of Copenhagen,     Denmark     (Vib.avg. NMR with SOPPA, parallel AO-SOPPA)
  Berta Fernandez,          U. of Santiago de Compostela, Spain       (doublet spin, ESR in RESPONS)
  Lara Ferrighi,            Aarhus University,            Denmark     (PCM Cubic response)
  Heike Fliegl,             University of Oslo,           Norway      (CCSD(R12))
  Luca Frediani,            UiT The Arctic U. of Norway,  Norway      (PCM)
  Bin Gao,                  UiT The Arctic U. of Norway,  Norway      (Gen1Int library)
  Christof Haettig,         Ruhr-University Bochum,       Germany     (CC module)
  Kasper Hald,              Aarhus University,            Denmark     (CC module)
  Asger Halkier,            Aarhus University,            Denmark     (CC module)
  Frederik Beyer Hansen,    University of Copenhagen,     Denmark     (Parallel AO-SOPPA)
  Erik D. Hedegaard,        Univ. of Southern Denmark,    Denmark     (Polarizable embedding model, QM/MM)
  Hanne Heiberg,            University of Oslo,           Norway      (geometry analysis, selected one-electron integrals)
  Trygve Helgaker,          University of Oslo,           Norway      (DALTON; ABACUS, ERI, DFT modules, London, and much more)
  Alf Christian Hennum,     University of Oslo,           Norway      (Parity violation)
  Hinne Hettema,            University of Auckland,       New Zealand (quadratic response in RESPONS; SIRIUS supersymmetry)
  Eirik Hjertenaes,         NTNU,                         Norway      (Cholesky decomposition)
  Pi A. B. Haase,           University of Copenhagen,     Denmark     (Triplet AO-SOPPA)
  Maria Francesca Iozzi,    University of Oslo,           Norway      (RPA)
  Brano Jansik              Technical Univ. of Ostrava    Czech Rep.  (DFT cubic response)
  Hans Joergen Aa. Jensen,  Univ. of Southern Denmark,    Denmark     (DALTON; SIRIUS, RESPONS, ABACUS modules, London, and much more)
  Dan Jonsson,              UiT The Arctic U. of Norway,  Norway      (cubic response in RESPONS module)
  Poul Joergensen,          Aarhus University,            Denmark     (RESPONS, ABACUS, and CC modules)
  Maciej Kaminski,          University of Warsaw,         Poland      (CPPh in RESPONS)
  Joanna Kauczor,           Linkoeping University,        Sweden      (Complex polarization propagator (CPP) module)
  Sheela Kirpekar,          Univ. of Southern Denmark,    Denmark     (Mass-velocity & Darwin integrals)
  Wim Klopper,              KIT Karlsruhe,                Germany     (R12 code in CC, SIRIUS, and ABACUS modules)
  Stefan Knecht,            ETH Zurich,                   Switzerland (Parallel CI and MCSCF)
  Rika Kobayashi,           Australian National Univ.,    Australia   (DIIS in CC, London in MCSCF)
  Henrik Koch,              NTNU,                         Norway      (CC module, Cholesky decomposition)
  Jacob Kongsted,           Univ. of Southern Denmark,    Denmark     (Polarizable embedding model, QM/MM)
  Andrea Ligabue,           University of Modena,         Italy       (CTOCD, AOSOPPA)
  Nanna H. List             Univ. of Southern Denmark,    Denmark     (Polarizable embedding model)
  Ola B. Lutnaes,           University of Oslo,           Norway      (DFT Hessian)
  Juan I. Melo,             University of Buenos Aires,   Argentina   (LRESC, Relativistic Effects on NMR Shieldings)
  Kurt V. Mikkelsen,        University of Copenhagen,     Denmark     (MC-SCRF and QM/MM)
  Rolf H. Myhre,            NTNU,                         Norway      (Cholesky, subsystems and ECC2)
  Christian Neiss,          Univ. Erlangen-Nuernberg,     Germany     (CCSD(R12))
  Christian B. Nielsen,     University of Copenhagen,     Denmark     (QM/MM)
  Patrick Norman,           Linkoeping University,        Sweden      (Cubic response and complex frequency response in RESPONS)
  Jeppe Olsen,              Aarhus University,            Denmark     (SIRIUS CI/density modules)
  Jogvan Magnus H. Olsen,   Univ. of Southern Denmark,    Denmark     (Polarizable embedding model, QM/MM)
  Anders Osted,             Copenhagen University,        Denmark     (QM/MM)
  Martin J. Packer,         University of Sheffield,      UK          (SOPPA)
  Filip Pawlowski,          Kazimierz Wielki University,  Poland      (CC3)
  Morten N. Pedersen,       Univ. of Southern Denmark,    Denmark     (Polarizable embedding model)
  Thomas B. Pedersen,       University of Oslo,           Norway      (Cholesky decomposition)
  Patricio F. Provasi,      University of Northeastern,   Argentina   (Analysis of coupling constants in localized orbitals)
  Zilvinas Rinkevicius,     KTH Stockholm,                Sweden      (open-shell DFT, ESR)
  Elias Rudberg,            KTH Stockholm,                Sweden      (DFT grid and basis info)
  Torgeir A. Ruden,         University of Oslo,           Norway      (Numerical derivatives in ABACUS)
  Kenneth Ruud,             UiT The Arctic U. of Norway,  Norway      (DALTON; ABACUS magnetic properties and much more)
  Pawel Salek,              KTH Stockholm,                Sweden      (DALTON; DFT code)
  Claire C. M. Samson       University of Karlsruhe       Germany     (Boys localization, r12 integrals in ERI)
  Alfredo Sanchez de Meras, University of Valencia,       Spain       (CC module, Cholesky decomposition)
  Trond Saue,               Paul Sabatier University,     France      (direct Fock matrix construction)
  Stephan P. A. Sauer,      University of Copenhagen,     Denmark     (SOPPA(CCSD), SOPPA prop., AOSOPPA, vibrational g-factors)
  Bernd Schimmelpfennig,    Forschungszentrum Karlsruhe,  Germany     (AMFI module)
  Kristian Sneskov,         Aarhus University,            Denmark     (Polarizable embedding model, QM/MM)
  Arnfinn H. Steindal,      UiT The Arctic U. of Norway,  Norway      (parallel QM/MM, Polarizable embedding model)
  Casper Steinmann,         Univ. of Southern Denmark,    Denmark     (QFIT, Polarizable embedding model)
  K. O. Sylvester-Hvid,     University of Copenhagen,     Denmark     (MC-SCRF)
  Peter R. Taylor,          VLSCI/Univ. of Melbourne,     Australia   (Symmetry handling ABACUS, integral transformation)
  Andrew M. Teale,          University of Nottingham,     England     (DFT-AC, DFT-D)
  David P. Tew,             University of Bristol,        England     (CCSD(R12))
  Olav Vahtras,             KTH Stockholm,                Sweden      (triplet response, spin-orbit, ESR, TDDFT, open-shell DFT)
  David J. Wilson,          La Trobe University,          Australia   (DFT Hessian and DFT magnetizabilities)
  Hans Agren,               KTH Stockholm,                Sweden      (SIRIUS module, RESPONS, MC-SCRF solvation model)
 --------------------------------------------------------------------------------

     Date and time (Linux)  : Fri Oct  5 17:13:40 2018
     Host name              : work                                    

 * Work memory size             :    64000000 =  488.28 megabytes.

 * Directories for basis set searches:
   1) /home/olav/dev/py/two_electron/tests/test_two.d/acetaldehyde
   2) /home/olav/dev/daltonprogram/dalton/build/master2/basis


Compilation information
-----------------------

 Who compiled             | olav
 Host                     | work
 System                   | Linux-4.13.0-32-generic
 CMake generator          | Unix Makefiles
 Processor                | x86_64
 64-bit integers          | OFF
 MPI                      | OFF
 Fortran compiler         | /usr/bin/gfortran
 Fortran compiler version | GNU Fortran (Ubuntu 7.2.0-8ubuntu3) 7.2.0
 C compiler               | /usr/bin/gcc
 C compiler version       | gcc (Ubuntu 7.2.0-8ubuntu3) 7.2.0
 C++ compiler             | /usr/bin/g++
 C++ compiler version     | g++ (Ubuntu 7.2.0-8ubuntu3) 7.2.0
 BLAS                     | /usr/lib/x86_64-linux-gnu/libblas.so
 LAPACK                   | /usr/lib/x86_64-linux-gnu/liblapack.so
 Static linking           | OFF
 Last Git revision        | 549cbcb6942e32cd3298a0e59e3dc5f8a8578676
 Git branch               | master
 Configuration time       | 2018-02-21 23:58:04.365699


   Content of the .dal input file
 ----------------------------------

**DALTON
.RUN WAVE
**WAVE FUNCTION
.HF
.MP2
**END OF


   Content of the .mol file
 ----------------------------

BASIS
cc-pVTZ
Generated from acetaldehyde.zmat by molconvert
====================================
Atomtypes=3 Units=Angtrom NoSymmetry
Charge=1.0 Atoms=4
H   1.757032  -0.950283   0.000000
H   1.423886   2.125080   0.000000
H   2.686840   1.258743   0.888667
H   2.686840   1.258743  -0.888667
Charge=6.0 Atoms=2
C   1.215000   0.000000   0.000000
C   2.052595   1.237122   0.000000
Charge=8.0 Atoms=1
O   0.000000   0.000000   0.000000


       *******************************************************************
       *********** Output from DALTON general input processing ***********
       *******************************************************************

 --------------------------------------------------------------------------------
   Overall default print level:    0
   Print level for DALTON.STAT:    1

    HERMIT 1- and 2-electron integral sections will be executed
    "Old" integral transformation used (limited to max 255 basis functions)
    Wave function sections will be executed (SIRIUS module)
 --------------------------------------------------------------------------------


   ****************************************************************************
   *************** Output of molecule and basis set information ***************
   ****************************************************************************


    The two title cards from your ".mol" input:
    ------------------------------------------------------------------------
 1: Generated from acetaldehyde.zmat by molconvert                          
 2: ====================================                                    
    ------------------------------------------------------------------------

  Coordinates are entered in Angstrom and converted to atomic units.
          - Conversion factor : 1 bohr = 0.52917721 A

  Atomic type no.    1
  --------------------
  Nuclear charge:   1.00000
  Number of symmetry independent centers:    4
  Number of basis sets to read;    2
  Basis set file used for this atomic type with Z =   1 :
     "/home/olav/dev/daltonprogram/dalton/build/master2/basis/cc-pVTZ"

  Atomic type no.    2
  --------------------
  Nuclear charge:   6.00000
  Number of symmetry independent centers:    2
  Number of basis sets to read;    2
  Basis set file used for this atomic type with Z =   6 :
     "/home/olav/dev/daltonprogram/dalton/build/master2/basis/cc-pVTZ"

  Atomic type no.    3
  --------------------
  Nuclear charge:   8.00000
  Number of symmetry independent centers:    1
  Number of basis sets to read;    2
  Basis set file used for this atomic type with Z =   8 :
     "/home/olav/dev/daltonprogram/dalton/build/master2/basis/cc-pVTZ"


                         SYMGRP: Point group information
                         -------------------------------

@    Point group: C1 


                                 Isotopic Masses
                                 ---------------

                           H           1.007825
                           H           1.007825
                           H           1.007825
                           H           1.007825
                           C          12.000000
                           C          12.000000
                           O          15.994915

                       Total mass:    44.026215 amu
                       Natural abundance:  97.519 %

 Center-of-mass coordinates (a.u.):    2.053110    0.796931    0.000000


  Atoms and basis sets
  --------------------

  Number of atom types :    3
  Total number of atoms:    7

  Basis set used is "cc-pVTZ" from the basis set library.

  label    atoms   charge   prim   cont     basis
  ----------------------------------------------------------------------
  H           4    1.0000    16    14      [5s2p1d|3s2p1d]                                    
  C           2    6.0000    42    30      [10s5p2d1f|4s3p2d1f]                               
  O           1    8.0000    42    30      [10s5p2d1f|4s3p2d1f]                               
  ----------------------------------------------------------------------
  total:      7   24.0000   190   146
  ----------------------------------------------------------------------
  Spherical harmonic basis used.

  Threshold for neglecting AO integrals:  1.00D-12


  Cartesian Coordinates (a.u.)
  ----------------------------

  Total number of coordinates:   21
  H       :     1  x   3.3203092728    2  y  -1.7957746112    3  z   0.0000000000
  H       :     4  x   2.6907545732    5  y   4.0158191937    6  z   0.0000000000
  H       :     7  x   5.0773917417    8  y   2.3786795318    9  z   1.6793372463
  H       :    10  x   5.0773917417   11  y   2.3786795318   12  z  -1.6793372463
  C       :    13  x   2.2960172419   14  y   0.0000000000   15  z   0.0000000000
  C       :    16  x   3.8788423955   17  y   2.3378217632   18  z   0.0000000000
  O       :    19  x   0.0000000000   20  y   0.0000000000   21  z   0.0000000000


   Interatomic separations (in Angstrom):
   --------------------------------------

            H           H           H           H           C           C     
            ------      ------      ------      ------      ------      ------
 H     :    0.000000
 H     :    3.093355    0.000000
 H     :    2.556182    1.770684    0.000000
 H     :    2.556182    1.770684    1.777334    0.000000
 C     :    1.094000    2.135322    2.130839    2.130839    0.000000
 C     :    2.207283    1.088000    1.092000    1.092000    1.494000    0.000000
 O     :    1.997548    2.558010    3.097301    3.097301    1.215000    2.396584

            O     
            ------
 O     :    0.000000


  Max    interatomic separation is    3.0973 Angstrom (    5.8531 Bohr)
  between atoms    7 and    3, "O     " and "H     ".

  Min HX interatomic separation is    1.0880 Angstrom (    2.0560 Bohr)

  Min YX interatomic separation is    1.2150 Angstrom (    2.2960 Bohr)


  Bond distances (Angstrom):
  --------------------------

                  atom 1     atom 2       distance
                  ------     ------       --------
  bond distance:  C          H            1.094000
  bond distance:  C          H            1.088000
  bond distance:  C          H            1.092000
  bond distance:  C          H            1.092000
  bond distance:  C          C            1.494000
  bond distance:  O          C            1.215000


  Bond angles (degrees):
  ----------------------

                  atom 1     atom 2     atom 3         angle
                  ------     ------     ------         -----
  bond angle:     H          C          C            116.200
  bond angle:     H          C          O            119.700
  bond angle:     C          C          O            124.100
  bond angle:     H          C          H            108.631
  bond angle:     H          C          H            108.631
  bond angle:     H          C          C            110.600
  bond angle:     H          C          H            108.937
  bond angle:     H          C          C            110.000
  bond angle:     H          C          C            110.000




 Principal moments of inertia (u*A**2) and principal axes
 --------------------------------------------------------

   IA       8.885443          0.840871    0.541236    0.000000
   IB      49.499073         -0.541236    0.840871    0.000000
   IC      55.200882          0.000000    0.000000    1.000000


 Rotational constants
 --------------------

               A                   B                   C

          56877.1862          10209.8680           9155.2705 MHz
            1.897219            0.340565            0.305387 cm-1


@  Nuclear repulsion energy :   69.785215633049 Hartree


                     .---------------------------------------.
                     | Starting in Integral Section (HERMIT) |
                     `---------------------------------------'



 ***************************************************************************************
 ****************** Output from **INTEGRALS input processing (HERMIT) ******************
 ***************************************************************************************


 - Using defaults, no **INTEGRALS input found

 Default print level:        1

 * Nuclear model: Point charge

 Calculation of one- and two-electron Hamiltonian integrals.

 Center of mass  (bohr):      2.053109964905      0.796931169031      0.000000000000
 Operator center (bohr):      0.000000000000      0.000000000000      0.000000000000
 Gauge origin    (bohr):      0.000000000000      0.000000000000      0.000000000000
 Dipole origin   (bohr):      0.000000000000      0.000000000000      0.000000000000


     ************************************************************************
     ************************** Output from HERINT **************************
     ************************************************************************



                      Nuclear contribution to dipole moments
                      --------------------------------------

                 au               Debye          C m (/(10**-30)

      x     53.21500515       135.25904286       451.17560250
      y     21.00433423        53.38768896       178.08216164
      z      0.00000000         0.00000000         0.00000000



 Threshold for neglecting two-electron integrals:  1.00D-12
 HERMIT - Number of two-electron integrals written:    44092105 ( 76.6% )
 HERMIT - Megabytes written:                            504.876

  Time used in TWOINT     is       7.12 seconds
  Total CPU  time used in HERMIT:   7.24 seconds
  Total wall time used in HERMIT:   7.62 seconds


                        .----------------------------------.
                        | End of Integral Section (HERMIT) |
                        `----------------------------------'



                   .--------------------------------------------.
                   | Starting in Wave Function Section (SIRIUS) |
                   `--------------------------------------------'


 *** Output from Huckel module :

     Using EWMO model:          T
     Using EHT  model:          F
     Number of Huckel orbitals each symmetry:   19

 EWMO - Energy Weighted Maximum Overlap - is a Huckel type method,
        which normally is better than Extended Huckel Theory.
 Reference: Linderberg and Ohrn, Propagators in Quantum Chemistry (Wiley, 1973)

 Huckel EWMO eigenvalues for symmetry :  1
          -20.684734     -11.354995     -11.349002      -1.731092      -1.388345
           -0.986596      -0.786364      -0.756283      -0.627124      -0.608567
           -0.548164      -0.452991      -0.293126      -0.159750      -0.132538
           -0.122920      -0.117744      -0.116949      -0.105016

 **********************************************************************
 *SIRIUS* a direct, restricted step, second order MCSCF program       *
 **********************************************************************

 
     Date and time (Linux)  : Fri Oct  5 17:13:48 2018
     Host name              : work                                    

 Title lines from ".mol" input file:
     Generated from acetaldehyde.zmat by molconvert                          
     ====================================                                    

 Print level on unit LUPRI =   2 is   0
 Print level on unit LUW4  =   2 is   5

@    MP2, closed-shell Moeller-Plesset second-order calculation.

@    This is a combination run starting with
@              a restricted, closed shell Hartree-Fock calculation


 Initial molecular orbitals are obtained according to
 ".MOSTART EWMO  " input option

     Wave function specification
     ============================
@    Wave function type        --- MP2 ---
@    Number of closed shell electrons          24
@    Number of electrons in active shells       0
@    Total charge of the molecule               0

@    Spin multiplicity and 2 M_S                1         0
@    Total number of symmetries                 1 (point group: C1 )
@    Reference state symmetry                   1 (irrep name : A  )

     Orbital specifications
     ======================
@    Abelian symmetry species          All |    1
@                                          |  A  
                                       --- |  ---
@    Occupied SCF orbitals              12 |   12
@    Secondary orbitals                134 |  134
@    Total number of orbitals          146 |  146
@    Number of basis functions         146 |  146

     Optimization information
     ========================
@    Number of configurations                 1
@    Number of orbital rotations           1608
     ------------------------------------------
@    Total number of variables             1609

     Maximum number of Fock   iterations      0
     Maximum number of DIIS   iterations     60
     Maximum number of QC-SCF iterations     60
     Threshold for SCF convergence     1.00D-06


 ***********************************************
 ***** DIIS acceleration of SCF iterations *****
 ***********************************************

 C1-DIIS algorithm; max error vectors =    8

 Iter      Total energy        Error norm    Delta(E)  DIIS dim.
 -----------------------------------------------------------------------------

Calculating AOSUPINT
     (Precalculated AO two-electron integrals are transformed to P-supermatrix elements.
      Threshold for discarding integrals :  1.00D-12 )
  CPU  time used in FORMSUP    is   3.14 seconds
  WALL time used in FORMSUP    is   5.27 seconds
@  1    -152.234589826        3.54889D+00   -1.52D+02    1
      Virial theorem: -V/T =      2.000637
@    MULPOP   H      -0.14; H      -0.04; H       0.05; H       0.05; C       1.10; C       0.06; O      -1.09; 
   1  Level shift: doubly occupied orbital energies shifted by -2.00D-01
 -----------------------------------------------------------------------------
@  2    -152.820420979        1.82177D+00   -5.86D-01    2
      Virial theorem: -V/T =      2.005210
@    MULPOP   H       0.16; H       0.20; H       0.19; H       0.19; C      -0.36; C      -0.51; O       0.12; 
   2  Level shift: doubly occupied orbital energies shifted by -2.00D-01
 -----------------------------------------------------------------------------
@  3    -152.966582178        2.92205D-01   -1.46D-01    3
      Virial theorem: -V/T =      1.999701
@    MULPOP   H       0.10; H       0.14; H       0.13; H       0.13; C       0.15; C      -0.34; O      -0.32; 
   3  Level shift: doubly occupied orbital energies shifted by -5.00D-02
 -----------------------------------------------------------------------------
@  4    -152.972931002        9.33110D-02   -6.35D-03    4
      Virial theorem: -V/T =      2.002433
@    MULPOP   H       0.08; H       0.12; H       0.10; H       0.10; C       0.20; C      -0.26; O      -0.33; 
   4  Level shift: doubly occupied orbital energies shifted by -2.50D-02
 -----------------------------------------------------------------------------
@  5    -152.973753641        2.52792D-02   -8.23D-04    5
      Virial theorem: -V/T =      2.001360
@    MULPOP   H       0.08; H       0.12; H       0.10; H       0.10; C       0.21; C      -0.27; O      -0.35; 
   5  Level shift: doubly occupied orbital energies shifted by -1.25D-02
 -----------------------------------------------------------------------------
@  6    -152.973850368        6.22785D-03   -9.67D-05    6
      Virial theorem: -V/T =      2.001412
@    MULPOP   H       0.08; H       0.12; H       0.10; H       0.10; C       0.21; C      -0.26; O      -0.35; 
 -----------------------------------------------------------------------------
@  7    -152.973857799        1.87788D-03   -7.43D-06    7
      Virial theorem: -V/T =      2.001389
@    MULPOP   H       0.08; H       0.12; H       0.10; H       0.10; C       0.21; C      -0.26; O      -0.35; 
 -----------------------------------------------------------------------------
@  8    -152.973858374        7.47528D-04   -5.75D-07    8
      Virial theorem: -V/T =      2.001391
@    MULPOP   H       0.08; H       0.12; H       0.10; H       0.10; C       0.21; C      -0.25; O      -0.35; 
 -----------------------------------------------------------------------------
@  9    -152.973858467        2.72961D-04   -9.30D-08    8
      Virial theorem: -V/T =      2.001393
@    MULPOP   H       0.08; H       0.12; H       0.10; H       0.10; C       0.21; C      -0.25; O      -0.35; 
 -----------------------------------------------------------------------------
@ 10    -152.973858480        6.83976D-05   -1.27D-08    8
      Virial theorem: -V/T =      2.001393
@    MULPOP   H       0.08; H       0.12; H       0.10; H       0.10; C       0.21; C      -0.25; O      -0.35; 
 -----------------------------------------------------------------------------
@ 11    -152.973858481        2.37847D-05   -8.43D-10    8
      Virial theorem: -V/T =      2.001393
@    MULPOP   H       0.08; H       0.12; H       0.10; H       0.10; C       0.21; C      -0.25; O      -0.35; 
 -----------------------------------------------------------------------------
@ 12    -152.973858481        6.19460D-06   -5.88D-11    8
      Virial theorem: -V/T =      2.001393
@    MULPOP   H       0.08; H       0.12; H       0.10; H       0.10; C       0.21; C      -0.25; O      -0.35; 
 -----------------------------------------------------------------------------
@ 13    -152.973858481        1.52391D-06   -3.01D-12    8
      Virial theorem: -V/T =      2.001393
@    MULPOP   H       0.08; H       0.12; H       0.10; H       0.10; C       0.21; C      -0.25; O      -0.35; 
 -----------------------------------------------------------------------------
@ 14    -152.973858481        3.47694D-07   -1.99D-12    8

@ *** DIIS converged in  14 iterations !
@     Converged SCF energy, gradient:   -152.973858480729    3.48D-07
    - total time used in SIRFCK :              0.00 seconds

 --- Writing SIRIFC interface file

 CPU and wall time for SCF :       7.448       9.719


 ----- Output from SIRIUS MP2 module -----

 Reference: H.J.Aa.Jensen, P.Jorgensen, H.Agren, and J.Olsen,
            J. Chem. Phys. 88, 3834 (1988); 89, 5354 (1988)

 Checking that the closed shell orbitals are canonical Hartree-Fock orbitals

    Number of electrons  :   24
    Closed shell orbitals:   12

 Generating Fock matrix

 Hartree-Fock electronic energy:        -222.759074113776
 Hartree-Fock total      energy:        -152.973858480727

 Hartree-Fock orbital energies, symmetry 1 ( A  ),   12 occupied SCF orbitals

       -20.55590950   -11.33322559   -11.24081979    -1.38802520    -1.02321715
        -0.80518391    -0.67341665    -0.62331524    -0.60782136    -0.55695899
        -0.50123641    -0.42731435     0.13888161     0.14065607     0.17444325
         0.19961057     0.21755832     0.29134538     0.32186032     0.38571171
         0.40488528     0.46847013     0.47968559     0.50959001     0.57789241
         0.61544290     0.62083828     0.62529320     0.65436032     0.70932954
         0.72817817     0.75266996     0.82600436     0.85000584     0.90685120
         0.92494376     0.94886687     1.04914404     1.13953016     1.14061142
         1.16253987     1.16518261     1.19592051     1.25682943     1.26298239
         1.31497724     1.36591473     1.39556425     1.41499372     1.45842087
         1.51009235     1.51408599     1.58958603     1.65064633     1.66712701
         1.77958431     1.90457382     1.99906894     2.07890285     2.17902002
         2.34606564     2.42227326     2.43922904     2.45123247     2.53367369
         2.53656626     2.63565268     2.80407096     2.83702205     2.84909144
         2.94205110     2.98475518     3.04320595     3.07327714     3.09594219
         3.12726602     3.17358885     3.21197356     3.24976936     3.28031461
         3.28649296     3.37959185     3.40000993     3.42105966     3.45751243
         3.55392555     3.57454959     3.59306681     3.63812590     3.69310820
         3.72838127     3.75624802     3.78751537     3.79565345     3.82856410
         3.99075191     4.03850086     4.07915502     4.08069850     4.12565179
         4.14010705     4.19737260     4.21599319     4.30110262     4.32193051
         4.37058519     4.44982429     4.48006832     4.51221214     4.52810148
         4.59709229     4.67864023     4.69803151     4.78197993     4.91151371
         5.01136780     5.12707806     5.13765823     5.17199454     5.24698495
         5.37748124     5.43181307     5.47546334     5.48865829     5.59223577
         5.60855388     5.62291069     5.65914211     5.69591929     5.75719275
         5.90818507     6.06612353     6.22020690     6.22049524     6.25490871
         6.67148626     6.68968726     6.88863742     6.92464162     7.26928939
         7.33707583     7.50462654     7.54290201    10.60070930    13.46070304
        14.00356211

    E(LUMO) :     0.13888161   (in symmetry 1)
  - E(HOMO) :    -0.42731435   (in symmetry 1)
  --------------------------
    gap     :     0.56619596

 2-el. integral transformation level 5: Total CPU and WALL times (sec)      13.452      23.129

 MP2 move   0.328748 electrons to unoccupied HF orbitals


@   Hartree-Fock total energy   :          -152.9738584807
@   + MP2 contribution          :            -0.6121201540
@   = MP2 second order energy   :          -153.5859786348

 Natural orbital occupation numbers, symmetry 1 (irrep A  )
 Sum =    24.00000000; RHF =    24.00000000; Difference =     0.00000000

         1.99953975     1.99919299     1.99912274     1.98404152     1.97960994
         1.97199912     1.96587055     1.96455862     1.96435962     1.95920361
         1.95493110     1.93422391     0.05567721     0.02930798     0.02772436
         0.01888026     0.01652472     0.01641654     0.01325885     0.01196948
         0.01169767     0.00893222     0.00857961     0.00852042     0.00794462
         0.00787034     0.00747339     0.00722200     0.00566954     0.00556285
         0.00495293     0.00384686     0.00319698     0.00296816     0.00255601
         0.00233626     0.00180405     0.00164676     0.00157914     0.00149933
         0.00141418     0.00136568     0.00126455     0.00121667     0.00118816
         0.00105869     0.00094543     0.00089959     0.00083971     0.00081658
         0.00072158     0.00070536     0.00063878     0.00059391     0.00057276
         0.00052897     0.00052551     0.00049787     0.00047462     0.00047381
         0.00044615     0.00041503     0.00040365     0.00038833     0.00038551
         0.00037715     0.00036452     0.00035225     0.00033946     0.00032606
         0.00032246     0.00031876     0.00031241     0.00030034     0.00028342
         0.00025473     0.00025106     0.00023605     0.00020824     0.00019504
         0.00019070     0.00018103     0.00017804     0.00017139     0.00016359
         0.00016282     0.00016159     0.00014905     0.00013567     0.00013355
         0.00013337     0.00012893     0.00012018     0.00011594     0.00011498
         0.00011115     0.00010661     0.00010314     0.00009663     0.00009469
         0.00009308     0.00009163     0.00008844     0.00008333     0.00007814
         0.00007786     0.00007605     0.00007212     0.00006654     0.00006222
         0.00005693     0.00005677     0.00005400     0.00005285     0.00004966
         0.00004661     0.00004350     0.00004214     0.00004125     0.00003967
         0.00003921     0.00003661     0.00003517     0.00003236     0.00003041
         0.00003014     0.00002945     0.00002368     0.00002242     0.00002070
         0.00002060     0.00002009     0.00001870     0.00001802     0.00001735
         0.00001682     0.00001580     0.00001491     0.00001456     0.00001204
         0.00001124     0.00000987     0.00000855     0.00000577     0.00000443
        -0.00002974

 Time used for MP2 natural orbitals :      14.263 CPU seconds,      23.947 wall seconds.

 CPU and wall time for MP2 :      14.263      23.949


                       .-----------------------------------.
                       | --- Final results from SIRIUS --- |
                       `-----------------------------------'


@    Spin multiplicity:           1
@    Spatial symmetry:            1 ( irrep  A   in C1  )
@    Total charge of molecule:    0

@    Final HF energy:            -152.973858480729                 
@    Nuclear repulsion:            69.785215633049
@    Electronic energy:          -222.759074113778

@    Final gradient norm:           0.000000347694

 
     Date and time (Linux)  : Fri Oct  5 17:14:21 2018
     Host name              : work                                    

File label for MO orbitals:   5Oct18   MP2SAVE 

 (Only coefficients > 0.0100 are printed.)

 Molecular orbitals for symmetry species 1  (A  )
 ------------------------------------------------

    Orbital         3        4        5        6        7        8        9
   1 H   :1s     0.0013   0.1943   0.0700  -0.6488  -0.0918   0.0000   0.1314
   2 H   :1s    -0.0007  -0.0602  -0.0099   0.1212  -0.0029  -0.0000  -0.0308
   3 H   :1s    -0.0006  -0.0518  -0.0220   0.1988  -0.0118   0.0000  -0.0493
   5 H   :2py    0.0000   0.0024   0.0020  -0.0129  -0.0008  -0.0000   0.0014
  15 H   :1s     0.0000   0.1154   0.3221   0.1912  -0.3276   0.0000   0.6251
  16 H   :1s    -0.0016  -0.0257  -0.0809  -0.0392   0.0459  -0.0000  -0.0917
  17 H   :1s    -0.0008  -0.0233  -0.1142  -0.0610   0.0662  -0.0000  -0.1672
  21 H   :2px   -0.0003  -0.0003   0.0017   0.0017   0.0013  -0.0000   0.0116
  23 H   :2pz   -0.0000  -0.0000  -0.0000  -0.0000  -0.0000  -0.0114  -0.0000
  29 H   :1s     0.0004   0.0674   0.3431   0.0728   0.3470  -0.5816  -0.1454
  30 H   :1s    -0.0015  -0.0196  -0.0809  -0.0206  -0.0603   0.0725   0.0117
  31 H   :1s    -0.0010  -0.0286  -0.1147  -0.0263  -0.0962   0.1317   0.0228
  35 H   :2px    0.0003  -0.0006  -0.0007  -0.0010   0.0016   0.0149  -0.0017
  43 H   :1s     0.0004   0.0674   0.3431   0.0728   0.3470   0.5816  -0.1454
  44 H   :1s    -0.0015  -0.0196  -0.0809  -0.0206  -0.0603  -0.0725   0.0117
  45 H   :1s    -0.0010  -0.0286  -0.1147  -0.0263  -0.0962  -0.1317   0.0228
  49 H   :2px    0.0003  -0.0006  -0.0007  -0.0010   0.0016  -0.0149  -0.0017
  57 C   :1s    -0.0138  -0.0185   0.0009   0.0004   0.0010  -0.0000   0.0025
  58 C   :1s     0.0011   0.4142   0.1500  -0.5224  -0.2956  -0.0000  -0.1798
  60 C   :1s    -0.0022  -0.0685  -0.0520   0.0635   0.0347  -0.0000   0.0201
  61 C   :2px    0.0004  -0.0639   0.1517  -0.2149   0.0074   0.0000  -0.0040
  62 C   :2py    0.0001  -0.0275   0.0933   0.4110  -0.2056   0.0000  -0.3158
  63 C   :2pz   -0.0000  -0.0000  -0.0000  -0.0000   0.0000  -0.1254  -0.0000
  64 C   :2px    0.0002   0.0272  -0.0223   0.0141  -0.0082   0.0000  -0.0090
  65 C   :2py   -0.0005  -0.0084  -0.0094  -0.0295   0.0059  -0.0000   0.0156
  67 C   :2px   -0.0003   0.0118  -0.0301   0.0166  -0.0499   0.0000  -0.0101
  68 C   :2py   -0.0011   0.0083  -0.0297  -0.0954   0.0104   0.0000   0.0190
  69 C   :2pz    0.0000  -0.0000  -0.0000   0.0000  -0.0000   0.0345  -0.0000
  70 C   :3d2-  -0.0001  -0.0012   0.0020   0.0052   0.0137   0.0000   0.0046
  72 C   :3d0    0.0001  -0.0108  -0.0018   0.0059   0.0039   0.0000   0.0025
  75 C   :3d2-  -0.0003  -0.0063   0.0030   0.0097   0.0148  -0.0000   0.0013
  76 C   :3d1-   0.0000   0.0000   0.0000   0.0000   0.0000  -0.0107  -0.0000
  77 C   :3d0    0.0001  -0.0167   0.0002   0.0057   0.0030   0.0000   0.0038
  78 C   :3d1+  -0.0000   0.0000   0.0000   0.0000  -0.0000  -0.0124   0.0000
  79 C   :3d2+   0.0000   0.0072  -0.0062   0.0066   0.0155   0.0000  -0.0105
  87 C   :1s     0.9984  -0.0069  -0.0146  -0.0012   0.0002   0.0000   0.0014
  88 C   :1s     0.0018   0.2214   0.7011   0.1847   0.1088   0.0000   0.0646
  89 C   :1s     0.0037  -0.0037  -0.0151  -0.0032  -0.0024  -0.0000  -0.0009
  90 C   :1s     0.0047  -0.0653  -0.1213   0.0180   0.0910   0.0000   0.0780
  91 C   :2px    0.0004  -0.0416   0.0611  -0.0371   0.4895   0.0000  -0.2844
  92 C   :2py   -0.0007  -0.0167   0.0642   0.1280  -0.0944   0.0000   0.4840
  93 C   :2pz    0.0000  -0.0000   0.0000  -0.0000   0.0000  -0.6777   0.0000
  94 C   :2px    0.0000   0.0072  -0.0031   0.0022  -0.0394  -0.0000   0.0129
  95 C   :2py    0.0009   0.0084  -0.0023  -0.0113  -0.0050   0.0000  -0.0437
  96 C   :2pz   -0.0000   0.0000  -0.0000   0.0000  -0.0000   0.0521  -0.0000
  97 C   :2px   -0.0004   0.0217  -0.0064   0.0043  -0.0871  -0.0000   0.0111
  98 C   :2py   -0.0001   0.0053   0.0030  -0.0483  -0.0284   0.0000  -0.0798
  99 C   :2pz   -0.0000   0.0000  -0.0000   0.0000  -0.0000   0.1022  -0.0000
 100 C   :3d2-  -0.0001   0.0003  -0.0008  -0.0028  -0.0001   0.0000  -0.0139
 102 C   :3d0    0.0001  -0.0016   0.0007   0.0009   0.0116  -0.0000  -0.0051
 103 C   :3d1+  -0.0000   0.0000  -0.0000  -0.0000  -0.0000  -0.0154   0.0000
 105 C   :3d2-  -0.0002  -0.0020  -0.0022  -0.0019   0.0028  -0.0000  -0.0138
 107 C   :3d0    0.0001   0.0017   0.0023   0.0002   0.0127  -0.0000  -0.0054
 108 C   :3d1+  -0.0000   0.0000  -0.0000   0.0000  -0.0000  -0.0141  -0.0000
 117 O   :1s     0.0000  -0.0106   0.0013   0.0022   0.0037   0.0000   0.0021
 118 O   :1s     0.0004   0.7812  -0.3657   0.3007   0.1721   0.0000   0.0005
 120 O   :1s     0.0002  -0.0563   0.0069   0.0288   0.0232   0.0000   0.0199
 121 O   :2px    0.0003  -0.0128   0.0602  -0.1567  -0.1795  -0.0000  -0.1276
 122 O   :2py    0.0005   0.0154   0.0742   0.1724  -0.4939  -0.0000  -0.4716
 127 O   :2px    0.0000  -0.0497   0.0114   0.0105   0.0120   0.0000   0.0090
 128 O   :2py    0.0001   0.0024   0.0010  -0.0171  -0.0032  -0.0000  -0.0016
 135 O   :3d2-  -0.0000  -0.0002   0.0026   0.0096  -0.0148  -0.0000  -0.0131

    Orbital        10       11       12       13       14       15       16
   1 H   :1s     0.4133   0.1262   0.0000  -0.0000   0.0783  -0.3727  -0.7354
   2 H   :1s    -0.0034  -0.0092  -0.0000   0.0000   0.1145  -0.0277   0.0020
   3 H   :1s    -0.0045   0.0241   0.0000   0.0000   0.0407  -0.0797   0.1037
   4 H   :2px   -0.0024  -0.0021  -0.0000   0.0000  -0.0018  -0.0201   0.0024
   5 H   :2py    0.0078  -0.0008   0.0000   0.0000  -0.0013  -0.0025   0.0157
   6 H   :2pz   -0.0000  -0.0000  -0.0039  -0.0111  -0.0000   0.0000   0.0000
   7 H   :2px   -0.0021  -0.0040   0.0000  -0.0000  -0.0392  -0.0292   0.0197
   8 H   :2py    0.0189  -0.0105  -0.0000  -0.0000   0.0325  -0.0194  -0.0064
   9 H   :2pz   -0.0000   0.0000  -0.0079  -0.0169  -0.0000   0.0000   0.0000
  15 H   :1s     0.0487   0.0644   0.0000   0.0000  -0.2051  -0.0549   0.1942
  16 H   :1s     0.0076  -0.0110  -0.0000   0.0000   0.0383   0.0054  -0.0600
  17 H   :1s     0.0610   0.0049  -0.0000  -0.0000   0.0644  -0.0899  -0.1229
  18 H   :2px    0.0011   0.0040   0.0000   0.0000  -0.0014  -0.0001   0.0191
  21 H   :2px    0.0026   0.0047  -0.0000   0.0000  -0.0112   0.0123   0.0225
  22 H   :2py   -0.0038   0.0037   0.0000  -0.0000   0.0035   0.0006   0.0179
  28 H   :3d2+   0.0004   0.0019   0.0000  -0.0000  -0.0015  -0.0005   0.0104
  29 H   :1s     0.0391   0.1741   0.1024   0.2021   0.1143   0.0201  -0.2615
  30 H   :1s     0.0056  -0.0166  -0.0017  -0.0317  -0.0096  -0.0143  -0.0538
  31 H   :1s    -0.0042  -0.0214  -0.0010  -0.0438  -0.0202  -0.0123   0.0432
  35 H   :2px   -0.0008   0.0049  -0.0026  -0.0041   0.0076  -0.0077   0.0212
  36 H   :2py    0.0047   0.0090  -0.0005   0.0011   0.0094  -0.0088   0.0110
  37 H   :2pz   -0.0036  -0.0069  -0.0028  -0.0087  -0.0102   0.0015   0.0288
  43 H   :1s     0.0391   0.1741  -0.1024  -0.2021   0.1143   0.0201  -0.2615
  44 H   :1s     0.0056  -0.0166   0.0017   0.0317  -0.0096  -0.0143  -0.0538
  45 H   :1s    -0.0042  -0.0214   0.0010   0.0438  -0.0202  -0.0123   0.0432
  49 H   :2px   -0.0008   0.0049   0.0026   0.0041   0.0076  -0.0077   0.0212
  50 H   :2py    0.0047   0.0090   0.0005  -0.0011   0.0094  -0.0088   0.0110
  51 H   :2pz    0.0036   0.0069  -0.0028  -0.0087   0.0102  -0.0015  -0.0288
  57 C   :1s     0.0046  -0.0081  -0.0000   0.0000   0.0248   0.0187   0.0141
  58 C   :1s    -0.2883  -0.0627  -0.0000   0.0000   0.7417   0.3810   0.7483
  59 C   :1s    -0.0035   0.0063   0.0000  -0.0000   0.0905   0.0536   0.1524
  60 C   :1s     0.1638  -0.0122   0.0000  -0.0000  -0.1431  -0.2609  -0.1690
  61 C   :2px    0.4170  -0.5245   0.0000   0.0000  -0.6772  -0.6430   0.8381
  62 C   :2py   -0.2580  -0.3367   0.0000   0.0000   0.4298  -0.6083   0.1739
  63 C   :2pz    0.0000  -0.0000  -0.5266  -0.8102  -0.0000  -0.0000  -0.0000
  64 C   :2px   -0.0747   0.0767  -0.0000  -0.0000  -0.0059   0.0078  -0.0280
  65 C   :2py    0.0230   0.0181  -0.0000  -0.0000   0.0503  -0.0021   0.0182
  66 C   :2pz   -0.0000   0.0000   0.0169  -0.0091   0.0000   0.0000   0.0000
  67 C   :2px   -0.1403   0.1938  -0.0000  -0.0000   0.2825   0.1744  -0.2863
  68 C   :2py    0.1307   0.1159   0.0000   0.0000  -0.0105  -0.0051  -0.1013
  69 C   :2pz   -0.0000   0.0000   0.0321   0.1121   0.0000   0.0000  -0.0000
  70 C   :3d2-  -0.0245  -0.0227  -0.0000   0.0000  -0.0332   0.0500   0.0262
  72 C   :3d0    0.0058  -0.0009   0.0000   0.0000   0.0112   0.0043   0.0099
  73 C   :3d1+  -0.0000  -0.0000   0.0203  -0.0017  -0.0000   0.0000   0.0000
  74 C   :3d2+  -0.0115   0.0139   0.0000   0.0000  -0.0199  -0.0161   0.0262
  75 C   :3d2-  -0.0274  -0.0306  -0.0000  -0.0000  -0.0396   0.0880   0.0803
  77 C   :3d0   -0.0013   0.0002  -0.0000  -0.0000   0.0234   0.0265   0.0044
  78 C   :3d1+  -0.0000   0.0000   0.0378   0.0275   0.0000   0.0000  -0.0000
  79 C   :3d2+  -0.0026  -0.0014   0.0000   0.0000  -0.0044   0.0158   0.0063
  80 C   :4f3-   0.0051   0.0006   0.0000  -0.0000   0.0004  -0.0171   0.0096
  84 C   :4f1+  -0.0005   0.0017   0.0000   0.0000  -0.0002   0.0020  -0.0161
  88 C   :1s    -0.1031  -0.1597   0.0000  -0.0000  -0.2823   0.3081  -0.1792
  89 C   :1s     0.0020   0.0063  -0.0000   0.0000  -0.0386   0.0358  -0.0336
  90 C   :1s    -0.1290  -0.0777  -0.0000  -0.0000  -0.1148   0.2324   0.2109
  91 C   :2px    0.1395   0.3553   0.0000   0.0000   0.2514  -0.2534   0.7003
  92 C   :2py    0.1665   0.4058   0.0000   0.0000   0.3889  -0.2256   0.6526
  93 C   :2pz    0.0000   0.0000   0.0724   0.1067   0.0000  -0.0000  -0.0000
  94 C   :2px   -0.0049  -0.0118  -0.0000  -0.0000  -0.0294  -0.0338   0.0294
  95 C   :2py   -0.0050  -0.0112  -0.0000  -0.0000   0.0048  -0.0552  -0.0025
  96 C   :2pz   -0.0000   0.0000  -0.0109  -0.0348  -0.0000   0.0000  -0.0000
  97 C   :2px    0.0196  -0.0354   0.0000   0.0000  -0.0280  -0.0408  -0.2293
  98 C   :2py   -0.0232  -0.0312   0.0000  -0.0000  -0.0278   0.0041  -0.1901
  99 C   :2pz   -0.0000  -0.0000  -0.0013  -0.0304  -0.0000  -0.0000  -0.0000
 100 C   :3d2-  -0.0054  -0.0109   0.0000   0.0000   0.0243  -0.0035   0.0112
 101 C   :3d1-   0.0000  -0.0000   0.0041   0.0175  -0.0000  -0.0000   0.0000
 102 C   :3d0    0.0019   0.0087  -0.0000  -0.0000   0.0005   0.0105  -0.0274
 103 C   :3d1+  -0.0000   0.0000   0.0066   0.0239   0.0000   0.0000  -0.0000
 104 C   :3d2+  -0.0003   0.0078  -0.0000   0.0000   0.0311  -0.0002  -0.0504
 105 C   :3d2-  -0.0083  -0.0219   0.0000   0.0000   0.0158   0.0283  -0.0178
 106 C   :3d1-  -0.0000   0.0000   0.0080   0.0268   0.0000   0.0000  -0.0000
 107 C   :3d0   -0.0022   0.0131  -0.0000  -0.0000   0.0086   0.0073  -0.0029
 108 C   :3d1+  -0.0000   0.0000   0.0044   0.0280  -0.0000   0.0000   0.0000
 109 C   :3d2+  -0.0065   0.0101   0.0000  -0.0000   0.0460   0.0170  -0.0365
 110 C   :4f3-   0.0009   0.0005  -0.0000  -0.0000  -0.0126  -0.0005   0.0099
 117 O   :1s     0.0084  -0.0061  -0.0000  -0.0000  -0.0179  -0.0128   0.0062
 118 O   :1s     0.0751   0.0238  -0.0000  -0.0000  -0.3124  -0.1984   0.0671
 119 O   :1s     0.0042  -0.0028   0.0000   0.0000  -0.0137  -0.0058   0.0115
 120 O   :1s     0.0656  -0.0390  -0.0000  -0.0000  -0.1319  -0.1265   0.0453
 121 O   :2px   -0.5803   0.4848   0.0000   0.0000  -1.0569  -0.7418   0.0206
 122 O   :2py    0.5048   0.3481  -0.0000   0.0000  -0.6751   1.0949   0.4309
 123 O   :2pz    0.0000  -0.0000  -0.7353   1.1058   0.0000   0.0000   0.0000
 124 O   :2px    0.0167  -0.0113  -0.0000  -0.0000   0.1430   0.0995   0.0241
 125 O   :2py   -0.0098  -0.0075   0.0000   0.0000   0.1903  -0.3107  -0.1459
 126 O   :2pz   -0.0000   0.0000   0.0094  -0.1291   0.0000  -0.0000  -0.0000
 127 O   :2px    0.0265  -0.0198  -0.0000   0.0000   0.4169   0.3027   0.0674
 128 O   :2py    0.0349   0.0367  -0.0000  -0.0000   0.4238  -0.7185  -0.3662
 129 O   :2pz   -0.0000   0.0000   0.0094  -0.4135   0.0000   0.0000   0.0000
 130 O   :3d2-   0.0013  -0.0001   0.0000   0.0000   0.0173  -0.0256   0.0002
 132 O   :3d0    0.0046  -0.0040  -0.0000  -0.0000  -0.0059  -0.0057   0.0106
 133 O   :3d1+   0.0000  -0.0000  -0.0097  -0.0153  -0.0000  -0.0000  -0.0000
 134 O   :3d2+  -0.0084   0.0071  -0.0000  -0.0000   0.0236   0.0184  -0.0095
 135 O   :3d2-   0.0068   0.0030  -0.0000  -0.0000   0.0436  -0.0620  -0.0083
 137 O   :3d0    0.0124  -0.0103   0.0000   0.0000  -0.0046  -0.0095   0.0257
 138 O   :3d1+  -0.0000   0.0000  -0.0281  -0.0325   0.0000   0.0000   0.0000
 139 O   :3d2+  -0.0231   0.0191   0.0000   0.0000   0.0412   0.0328  -0.0145

    Orbital        17       18       19       20       21       22
   1 H   :1s    -0.0000  -0.0267   0.5877  -0.1806   0.4954   0.0103
   2 H   :1s     0.0000   0.0045   0.0198   0.1413   0.2330  -0.1684
   3 H   :1s     0.0000   0.0648  -0.1821   0.1113  -0.1500   0.0129
   4 H   :2px    0.0000   0.0023   0.0019   0.0007   0.0130  -0.0413
   5 H   :2py    0.0000  -0.0098  -0.0149  -0.0115  -0.0481   0.0049
   7 H   :2px    0.0000   0.0042  -0.0144  -0.0188  -0.0117  -0.0170
   8 H   :2py    0.0000  -0.0250   0.0274   0.0223   0.0371  -0.0319
   9 H   :2pz   -0.0171  -0.0000  -0.0000  -0.0000   0.0000  -0.0000
  10 H   :3d2-   0.0000   0.0027   0.0039  -0.0009   0.0159  -0.0155
  12 H   :3d0    0.0000   0.0009   0.0036   0.0026   0.0121  -0.0050
  14 H   :3d2+  -0.0000   0.0008   0.0056   0.0045   0.0104   0.0054
  15 H   :1s    -0.0000   0.8700  -0.6611  -0.2089   0.1826  -0.7202
  16 H   :1s     0.0000   0.2121   0.0304   0.0729  -0.0218   0.4992
  17 H   :1s     0.0000  -0.1081   0.2043   0.1263  -0.0465   0.4300
  18 H   :2px   -0.0000  -0.0173   0.0153  -0.0033   0.0007  -0.0436
  19 H   :2py    0.0000   0.0275  -0.0108  -0.0030   0.0297   0.0476
  20 H   :2pz    0.0180  -0.0000  -0.0000  -0.0000   0.0000  -0.0000
  21 H   :2px    0.0000   0.0377  -0.0055   0.0046   0.0179  -0.0102
  22 H   :2py   -0.0000  -0.0786   0.0182  -0.0100   0.0628  -0.0034
  23 H   :2pz    0.0105  -0.0000  -0.0000  -0.0000   0.0000   0.0000
  24 H   :3d2-   0.0000   0.0108  -0.0083  -0.0017   0.0070   0.0162
  25 H   :3d1-  -0.0101   0.0000  -0.0000   0.0000  -0.0000   0.0000
  29 H   :1s    -0.7764  -0.3651  -0.6280   0.1837   0.1464   0.1813
  30 H   :1s    -0.1658  -0.0732  -0.0328  -0.0395  -0.0001  -0.1522
  31 H   :1s     0.1202   0.0503   0.1603  -0.1000  -0.0163  -0.0896
  32 H   :2px   -0.0233   0.0003  -0.0104  -0.0047   0.0153  -0.0124
  33 H   :2py   -0.0025  -0.0125   0.0077   0.0010   0.0101   0.0246
  34 H   :2pz   -0.0141  -0.0169  -0.0261  -0.0006   0.0160  -0.0129
  35 H   :2px    0.0397   0.0224   0.0096  -0.0182   0.0234  -0.0010
  36 H   :2py    0.0107  -0.0022   0.0090  -0.0063   0.0280   0.0625
  37 H   :2pz    0.0629   0.0157   0.0116   0.0003   0.0226   0.0052
  41 H   :3d1+   0.0075   0.0034   0.0099   0.0016  -0.0101   0.0036
  43 H   :1s     0.7764  -0.3651  -0.6280   0.1837   0.1464   0.1813
  44 H   :1s     0.1658  -0.0732  -0.0328  -0.0395  -0.0001  -0.1522
  45 H   :1s    -0.1202   0.0503   0.1603  -0.1000  -0.0163  -0.0896
  46 H   :2px    0.0233   0.0003  -0.0104  -0.0047   0.0153  -0.0124
  47 H   :2py    0.0025  -0.0125   0.0077   0.0010   0.0101   0.0246
  48 H   :2pz   -0.0141   0.0169   0.0261   0.0006  -0.0160   0.0129
  49 H   :2px   -0.0397   0.0224   0.0096  -0.0182   0.0234  -0.0010
  50 H   :2py   -0.0107  -0.0022   0.0090  -0.0063   0.0280   0.0625
  51 H   :2pz    0.0629  -0.0157  -0.0116  -0.0003  -0.0226  -0.0052
  55 H   :3d1+   0.0075  -0.0034  -0.0099  -0.0016   0.0101  -0.0036
  57 C   :1s     0.0000  -0.0002   0.0043   0.0001  -0.0081   0.0149
  58 C   :1s     0.0000  -0.0156  -0.2607   0.0020  -0.1636  -0.0295
  59 C   :1s    -0.0000  -0.0100  -0.0812  -0.0428  -0.0429  -0.0346
  60 C   :1s     0.0000   0.0468   0.1857   0.2121  -0.1289  -0.1489
  61 C   :2px    0.0000  -0.4669  -0.2935  -0.0012  -0.1198   0.7919
  62 C   :2py    0.0000   0.0004   0.4158   0.0870   1.2367  -0.2604
  63 C   :2pz   -0.1613   0.0000  -0.0000   0.0000  -0.0000   0.0000
  64 C   :2px   -0.0000   0.0654   0.0390  -0.1079  -0.0420  -0.3847
  65 C   :2py   -0.0000  -0.0361  -0.0082   0.0169  -0.2265  -0.0316
  67 C   :2px   -0.0000   0.1474   0.1170  -0.1563   0.0013  -0.3245
  68 C   :2py    0.0000  -0.0267  -0.1320  -0.0115  -0.7292   0.0220
  69 C   :2pz    0.0413   0.0000   0.0000   0.0000   0.0000  -0.0000
  70 C   :3d2-  -0.0000   0.0152   0.0012  -0.0028   0.0991   0.0427
  71 C   :3d1-   0.0418  -0.0000   0.0000  -0.0000   0.0000  -0.0000
  72 C   :3d0   -0.0000   0.0014  -0.0133   0.0302  -0.0299   0.0006
  73 C   :3d1+   0.0284   0.0000  -0.0000  -0.0000   0.0000  -0.0000
  74 C   :3d2+   0.0000   0.0265  -0.0172   0.0048  -0.0204  -0.1558
  75 C   :3d2-   0.0000  -0.0429   0.0518   0.0268   0.3086  -0.0128
  76 C   :3d1-   0.0306   0.0000   0.0000  -0.0000   0.0000  -0.0000
  77 C   :3d0   -0.0000  -0.0107  -0.0175   0.0175  -0.0144  -0.0317
  79 C   :3d2+  -0.0000  -0.0056  -0.0136   0.1352  -0.0199  -0.2083
  80 C   :4f3-   0.0000   0.0167  -0.0011  -0.0079   0.0013  -0.0242
  81 C   :4f2-   0.0105  -0.0000   0.0000   0.0000   0.0000  -0.0000
  82 C   :4f1-   0.0000  -0.0036  -0.0080   0.0023  -0.0243  -0.0026
  84 C   :4f1+   0.0000   0.0008   0.0053   0.0108   0.0011  -0.0122
  85 C   :4f2+  -0.0136  -0.0000   0.0000   0.0000  -0.0000   0.0000
  86 C   :4f3+  -0.0000   0.0057  -0.0084  -0.0082  -0.0239  -0.0034
  88 C   :1s     0.0000  -0.0239   1.0693  -0.1398  -0.4964   0.0894
  89 C   :1s    -0.0000  -0.0137   0.3353  -0.0467  -0.1594   0.0223
  90 C   :1s    -0.0000  -0.0170  -0.5081   0.1017   0.4550  -0.0555
  91 C   :2px   -0.0000   1.0386   0.4545  -0.0166  -0.1869   0.3262
  92 C   :2py    0.0000  -0.9494   0.4258   0.2741  -0.3070  -0.5779
  93 C   :2pz    1.3793   0.0000  -0.0000   0.0000  -0.0000   0.0000
  94 C   :2px    0.0000  -0.0324  -0.0345  -0.0554   0.1281  -0.0786
  95 C   :2py   -0.0000  -0.0099  -0.0033  -0.0604   0.2346   0.1699
  96 C   :2pz    0.0175   0.0000  -0.0000  -0.0000   0.0000  -0.0000
  97 C   :2px    0.0000  -0.3722  -0.1738   0.0053   0.0755  -0.2320
  98 C   :2py   -0.0000   0.3274  -0.1312  -0.2029   0.2374   0.3860
  99 C   :2pz   -0.4689  -0.0000  -0.0000  -0.0000  -0.0000  -0.0000
 100 C   :3d2-  -0.0000  -0.0285   0.0293  -0.0046   0.0852   0.1664
 101 C   :3d1-  -0.0122  -0.0000  -0.0000   0.0000  -0.0000   0.0000
 102 C   :3d0    0.0000  -0.0222  -0.0125   0.0291  -0.0409   0.0453
 103 C   :3d1+  -0.0500   0.0000  -0.0000  -0.0000  -0.0000  -0.0000
 104 C   :3d2+  -0.0000  -0.0049   0.0141   0.0183  -0.0402   0.0765
 105 C   :3d2-   0.0000   0.0121   0.0167   0.0104   0.0812   0.2619
 106 C   :3d1-  -0.0341  -0.0000   0.0000  -0.0000   0.0000  -0.0000
 107 C   :3d0   -0.0000   0.0211  -0.0070   0.0387  -0.0675   0.0902
 109 C   :3d2+   0.0000  -0.0114   0.0329   0.0428  -0.0390   0.0992
 110 C   :4f3-   0.0000   0.0038  -0.0084  -0.0039  -0.0114  -0.0168
 112 C   :4f1-   0.0000   0.0003   0.0032  -0.0047   0.0195   0.0270
 114 C   :4f1+  -0.0000  -0.0010   0.0067  -0.0022   0.0090   0.0153
 116 C   :4f3+   0.0000  -0.0021   0.0020  -0.0117   0.0249   0.0057
 117 O   :1s     0.0000  -0.0020   0.0021   0.0226  -0.0020   0.0038
 118 O   :1s     0.0000  -0.2585  -0.0245  -1.1121   0.0469   0.0016
 119 O   :1s    -0.0000  -0.0777  -0.0150  -0.4961   0.0220  -0.0156
 120 O   :1s    -0.0000   0.1431  -0.0128   1.2251  -0.0759   0.2376
 121 O   :2px    0.0000  -0.1247   0.0674   0.6248   0.0047   0.0126
 122 O   :2py   -0.0000  -0.1331   0.1658   0.1832   0.7266  -0.1363
 123 O   :2pz    0.0406  -0.0000  -0.0000   0.0000  -0.0000   0.0000
 124 O   :2px   -0.0000  -0.0019  -0.0272  -0.3092  -0.0120   0.0353
 125 O   :2py    0.0000   0.0334  -0.0647  -0.0696  -0.2743   0.0567
 126 O   :2pz   -0.0109   0.0000   0.0000   0.0000   0.0000  -0.0000
 127 O   :2px   -0.0000  -0.0253  -0.0973  -0.6382  -0.0145   0.2233
 128 O   :2py    0.0000   0.1163  -0.1661  -0.1821  -0.5232   0.1826
 129 O   :2pz    0.0209  -0.0000   0.0000  -0.0000  -0.0000  -0.0000
 130 O   :3d2-  -0.0000  -0.0030   0.0154   0.0057   0.0010  -0.0428
 132 O   :3d0    0.0000  -0.0070  -0.0063   0.0286  -0.0083   0.0280
 133 O   :3d1+  -0.0146   0.0000  -0.0000  -0.0000  -0.0000   0.0000
 134 O   :3d2+  -0.0000   0.0160   0.0064   0.0092  -0.0013  -0.1134
 135 O   :3d2-   0.0000  -0.0171   0.0295   0.0114  -0.0006  -0.0830
 137 O   :3d0   -0.0000  -0.0175  -0.0121   0.0517  -0.0138   0.0573
 138 O   :3d1+  -0.0355  -0.0000   0.0000   0.0000   0.0000  -0.0000
 139 O   :3d2+   0.0000   0.0234   0.0155  -0.0133  -0.0102  -0.2209
 140 O   :4f3-  -0.0000  -0.0045   0.0065   0.0028   0.0069  -0.0102
 144 O   :4f1+   0.0000  -0.0025  -0.0037   0.0079  -0.0031   0.0154
 146 O   :4f3+   0.0000   0.0029   0.0028  -0.0011  -0.0022  -0.0295

  Total CPU  time used in SIRIUS :  21.92 seconds
  Total wall time used in SIRIUS :  33.91 seconds

 
     Date and time (Linux)  : Fri Oct  5 17:14:21 2018
     Host name              : work                                    


                     .---------------------------------------.
                     | End of Wave Function Section (SIRIUS) |
                     `---------------------------------------'

  Total CPU  time used in DALTON:  29.21 seconds
  Total wall time used in DALTON:  41.60 seconds

 
     Date and time (Linux)  : Fri Oct  5 17:14:21 2018
     Host name              : work                                    
